
     Program PWSCF v.6.5 starts on 16Apr2020 at 21:39:50 

     This program is part of the open-source Quantum ESPRESSO suite
     for quantum simulation of materials; please cite
         "P. Giannozzi et al., J. Phys.:Condens. Matter 21 395502 (2009);
         "P. Giannozzi et al., J. Phys.:Condens. Matter 29 465901 (2017);
          URL http://www.quantum-espresso.org", 
     in publications or presentations arising from this work. More details at
     http://www.quantum-espresso.org/quote

     Parallel version (MPI), running on     8 processors

     MPI processes distributed on     1 nodes
     R & G space division:  proc/nbgrp/npool/nimage =       8
     Reading input from /wrk/kfg/julia_data/MgS/dimer.in_vnscf_coords_7/qe.nscf.in
Warning: card &IONS ignored
Warning: card   ION_DYNAMICS='BFGS', ignored
Warning: card / ignored
Warning: card &CELL ignored
Warning: card  CELL_DYNAMICS = 'BFGS' ignored
Warning: card  CELL_DOFREE = 'ALL' ignored
Warning: card  CELL_FACTOR = 1.0 ignored
Warning: card / ignored
     Message from routine read_cards :
     DEPRECATED: no units specified in CELL_PARAMETERS card

     Current dimensions of program PWSCF are:
     Max number of different atomic species (ntypx) = 10
     Max number of k-points (npk) =  40000
     Max angular momentum in pseudopotentials (lmaxx) =  3

     Atomic positions and unit cell read from directory:
     /wrk/kfg/julia_data/MgS/dimer.in_vnscf_coords_7/qe.nscf.save/                                                                                                                                                                                                   
 
               file mg.pbesol.UPF: wavefunction(s)  3P renormalized

     Subspace diagonalization in iterative solution of the eigenvalue problem:
     one sub-group per band group will be used
     scalapack distributed-memory algorithm (size of sub-group:  2*  2 procs)

 
     Parallelization info
     --------------------
     sticks:   dense  smooth     PW     G-vecs:    dense   smooth      PW
     Min         487     350     97                32720    19990    2917
     Max         490     351     98                32721    19993    2920
     Sum        3909    2801    777               261761   159925   23349
 


     bravais-lattice index     =            0
     lattice parameter (alat)  =      14.0000  a.u.
     unit-cell volume          =    3920.0000 (a.u.)^3
     number of atoms/cell      =            2
     number of atomic types    =            2
     number of electrons       =        16.00
     number of Kohn-Sham states=           33
     kinetic-energy cutoff     =      45.0000  Ry
     charge density cutoff     =     250.0000  Ry
     Exchange-correlation= SLA  PW   PSX  PSC
                           (   1   4  10   8   0   0   0)
     A smooth kinetic-energy cutoff is imposed at      44.5000 Ry
     height of the smooth step-function =             800.0000 Ry
     width of the smooth step-function  =               1.0000 Ry


     celldm(1)=  14.000000  celldm(2)=   0.000000  celldm(3)=   0.000000
     celldm(4)=   0.000000  celldm(5)=   0.000000  celldm(6)=   0.000000

     crystal axes: (cart. coord. in units of alat)
               a(1) = (   1.000000   0.000000   0.000000 )  
               a(2) = (   0.000000   1.000000   0.000000 )  
               a(3) = (   0.000000   0.000000   1.428571 )  

     reciprocal axes: (cart. coord. in units 2 pi/alat)
               b(1) = (  1.000000  0.000000  0.000000 )  
               b(2) = (  0.000000  1.000000  0.000000 )  
               b(3) = (  0.000000  0.000000  0.700000 )  


     PseudoPot. # 1 for Mg read from file:
     /home/kfg/psuedo/gbrv_1.5/mg.pbesol.UPF
     MD5 check sum: cbba17e5274afd115179030b10be074e
     Pseudo is Ultrasoft, Zval = 10.0
     Generated by new atomic code, or converted to UPF format
     Using radial grid of  821 points,  7 beta functions with: 
                l(1) =   0
                l(2) =   0
                l(3) =   0
                l(4) =   1
                l(5) =   1
                l(6) =   2
                l(7) =   2
     Q(r) pseudized with  8 coefficients,  rinner =    1.200   1.200   1.200
                                                       1.200   1.200

     PseudoPot. # 2 for S  read from file:
     /home/kfg/psuedo/gbrv_1.5/s.pbesol.UPF
     MD5 check sum: 0ccfa86ec6eb59065d10aaae963ef2a7
     Pseudo is Ultrasoft + core correction, Zval =  6.0
     Generated by new atomic code, or converted to UPF format
     Using radial grid of  907 points,  6 beta functions with: 
                l(1) =   0
                l(2) =   0
                l(3) =   1
                l(4) =   1
                l(5) =   2
                l(6) =   2
     Q(r) pseudized with  8 coefficients,  rinner =    1.300   1.300   1.300
                                                       1.300   1.300

     atomic species   valence    mass     pseudopotential
        Mg            10.00    24.31000     Mg( 1.00)
        S              6.00    32.06000     S ( 1.00)

     No symmetry found


                                    s                        frac. trans.

      isym =  1     identity                                     

 cryst.   s( 1) = (     1          0          0      )
                  (     0          1          0      )
                  (     0          0          1      )

 cart.    s( 1) = (  1.0000000  0.0000000  0.0000000 )
                  (  0.0000000  1.0000000  0.0000000 )
                  (  0.0000000  0.0000000  1.0000000 )


   Cartesian axes

     site n.     atom                  positions (alat units)
         1           Mg  tau(   1) = (   0.0000000   0.0000000  -0.1545191  )
         2           S   tau(   2) = (   0.0000000   0.0000000   0.1545191  )

   Crystallographic axes

     site n.     atom                  positions (cryst. coord.)
         1           Mg  tau(   1) = (  0.0000000  0.0000000 -0.1081634  )
         2           S   tau(   2) = (  0.0000000  0.0000000  0.1081634  )

     number of k points=    64  Gaussian smearing, width (Ry)=  0.0100
                       cart. coord. in units 2pi/alat
        k(    1) = (   0.0000000   0.0000000   0.0000000), wk =   0.0312500
        k(    2) = (   0.0000000   0.0000000   0.1750000), wk =   0.0312500
        k(    3) = (   0.0000000   0.0000000  -0.3500000), wk =   0.0312500
        k(    4) = (   0.0000000   0.0000000  -0.1750000), wk =   0.0312500
        k(    5) = (   0.0000000   0.2500000   0.0000000), wk =   0.0312500
        k(    6) = (   0.0000000   0.2500000   0.1750000), wk =   0.0312500
        k(    7) = (   0.0000000   0.2500000  -0.3500000), wk =   0.0312500
        k(    8) = (   0.0000000   0.2500000  -0.1750000), wk =   0.0312500
        k(    9) = (   0.0000000  -0.5000000   0.0000000), wk =   0.0312500
        k(   10) = (   0.0000000  -0.5000000   0.1750000), wk =   0.0312500
        k(   11) = (   0.0000000  -0.5000000  -0.3500000), wk =   0.0312500
        k(   12) = (   0.0000000  -0.5000000  -0.1750000), wk =   0.0312500
        k(   13) = (   0.0000000  -0.2500000   0.0000000), wk =   0.0312500
        k(   14) = (   0.0000000  -0.2500000   0.1750000), wk =   0.0312500
        k(   15) = (   0.0000000  -0.2500000  -0.3500000), wk =   0.0312500
        k(   16) = (   0.0000000  -0.2500000  -0.1750000), wk =   0.0312500
        k(   17) = (   0.2500000   0.0000000   0.0000000), wk =   0.0312500
        k(   18) = (   0.2500000   0.0000000   0.1750000), wk =   0.0312500
        k(   19) = (   0.2500000   0.0000000  -0.3500000), wk =   0.0312500
        k(   20) = (   0.2500000   0.0000000  -0.1750000), wk =   0.0312500
        k(   21) = (   0.2500000   0.2500000   0.0000000), wk =   0.0312500
        k(   22) = (   0.2500000   0.2500000   0.1750000), wk =   0.0312500
        k(   23) = (   0.2500000   0.2500000  -0.3500000), wk =   0.0312500
        k(   24) = (   0.2500000   0.2500000  -0.1750000), wk =   0.0312500
        k(   25) = (   0.2500000  -0.5000000   0.0000000), wk =   0.0312500
        k(   26) = (   0.2500000  -0.5000000   0.1750000), wk =   0.0312500
        k(   27) = (   0.2500000  -0.5000000  -0.3500000), wk =   0.0312500
        k(   28) = (   0.2500000  -0.5000000  -0.1750000), wk =   0.0312500
        k(   29) = (   0.2500000  -0.2500000   0.0000000), wk =   0.0312500
        k(   30) = (   0.2500000  -0.2500000   0.1750000), wk =   0.0312500
        k(   31) = (   0.2500000  -0.2500000  -0.3500000), wk =   0.0312500
        k(   32) = (   0.2500000  -0.2500000  -0.1750000), wk =   0.0312500
        k(   33) = (  -0.5000000   0.0000000   0.0000000), wk =   0.0312500
        k(   34) = (  -0.5000000   0.0000000   0.1750000), wk =   0.0312500
        k(   35) = (  -0.5000000   0.0000000  -0.3500000), wk =   0.0312500
        k(   36) = (  -0.5000000   0.0000000  -0.1750000), wk =   0.0312500
        k(   37) = (  -0.5000000   0.2500000   0.0000000), wk =   0.0312500
        k(   38) = (  -0.5000000   0.2500000   0.1750000), wk =   0.0312500
        k(   39) = (  -0.5000000   0.2500000  -0.3500000), wk =   0.0312500
        k(   40) = (  -0.5000000   0.2500000  -0.1750000), wk =   0.0312500
        k(   41) = (  -0.5000000  -0.5000000   0.0000000), wk =   0.0312500
        k(   42) = (  -0.5000000  -0.5000000   0.1750000), wk =   0.0312500
        k(   43) = (  -0.5000000  -0.5000000  -0.3500000), wk =   0.0312500
        k(   44) = (  -0.5000000  -0.5000000  -0.1750000), wk =   0.0312500
        k(   45) = (  -0.5000000  -0.2500000   0.0000000), wk =   0.0312500
        k(   46) = (  -0.5000000  -0.2500000   0.1750000), wk =   0.0312500
        k(   47) = (  -0.5000000  -0.2500000  -0.3500000), wk =   0.0312500
        k(   48) = (  -0.5000000  -0.2500000  -0.1750000), wk =   0.0312500
        k(   49) = (  -0.2500000   0.0000000   0.0000000), wk =   0.0312500
        k(   50) = (  -0.2500000   0.0000000   0.1750000), wk =   0.0312500
        k(   51) = (  -0.2500000   0.0000000  -0.3500000), wk =   0.0312500
        k(   52) = (  -0.2500000   0.0000000  -0.1750000), wk =   0.0312500
        k(   53) = (  -0.2500000   0.2500000   0.0000000), wk =   0.0312500
        k(   54) = (  -0.2500000   0.2500000   0.1750000), wk =   0.0312500
        k(   55) = (  -0.2500000   0.2500000  -0.3500000), wk =   0.0312500
        k(   56) = (  -0.2500000   0.2500000  -0.1750000), wk =   0.0312500
        k(   57) = (  -0.2500000  -0.5000000   0.0000000), wk =   0.0312500
        k(   58) = (  -0.2500000  -0.5000000   0.1750000), wk =   0.0312500
        k(   59) = (  -0.2500000  -0.5000000  -0.3500000), wk =   0.0312500
        k(   60) = (  -0.2500000  -0.5000000  -0.1750000), wk =   0.0312500
        k(   61) = (  -0.2500000  -0.2500000   0.0000000), wk =   0.0312500
        k(   62) = (  -0.2500000  -0.2500000   0.1750000), wk =   0.0312500
        k(   63) = (  -0.2500000  -0.2500000  -0.3500000), wk =   0.0312500
        k(   64) = (  -0.2500000  -0.2500000  -0.1750000), wk =   0.0312500

                       cryst. coord.
        k(    1) = (   0.0000000   0.0000000   0.0000000), wk =   0.0312500
        k(    2) = (   0.0000000   0.0000000   0.2500000), wk =   0.0312500
        k(    3) = (   0.0000000   0.0000000  -0.5000000), wk =   0.0312500
        k(    4) = (   0.0000000   0.0000000  -0.2500000), wk =   0.0312500
        k(    5) = (   0.0000000   0.2500000   0.0000000), wk =   0.0312500
        k(    6) = (   0.0000000   0.2500000   0.2500000), wk =   0.0312500
        k(    7) = (   0.0000000   0.2500000  -0.5000000), wk =   0.0312500
        k(    8) = (   0.0000000   0.2500000  -0.2500000), wk =   0.0312500
        k(    9) = (   0.0000000  -0.5000000   0.0000000), wk =   0.0312500
        k(   10) = (   0.0000000  -0.5000000   0.2500000), wk =   0.0312500
        k(   11) = (   0.0000000  -0.5000000  -0.5000000), wk =   0.0312500
        k(   12) = (   0.0000000  -0.5000000  -0.2500000), wk =   0.0312500
        k(   13) = (   0.0000000  -0.2500000   0.0000000), wk =   0.0312500
        k(   14) = (   0.0000000  -0.2500000   0.2500000), wk =   0.0312500
        k(   15) = (   0.0000000  -0.2500000  -0.5000000), wk =   0.0312500
        k(   16) = (   0.0000000  -0.2500000  -0.2500000), wk =   0.0312500
        k(   17) = (   0.2500000   0.0000000   0.0000000), wk =   0.0312500
        k(   18) = (   0.2500000   0.0000000   0.2500000), wk =   0.0312500
        k(   19) = (   0.2500000   0.0000000  -0.5000000), wk =   0.0312500
        k(   20) = (   0.2500000   0.0000000  -0.2500000), wk =   0.0312500
        k(   21) = (   0.2500000   0.2500000   0.0000000), wk =   0.0312500
        k(   22) = (   0.2500000   0.2500000   0.2500000), wk =   0.0312500
        k(   23) = (   0.2500000   0.2500000  -0.5000000), wk =   0.0312500
        k(   24) = (   0.2500000   0.2500000  -0.2500000), wk =   0.0312500
        k(   25) = (   0.2500000  -0.5000000   0.0000000), wk =   0.0312500
        k(   26) = (   0.2500000  -0.5000000   0.2500000), wk =   0.0312500
        k(   27) = (   0.2500000  -0.5000000  -0.5000000), wk =   0.0312500
        k(   28) = (   0.2500000  -0.5000000  -0.2500000), wk =   0.0312500
        k(   29) = (   0.2500000  -0.2500000   0.0000000), wk =   0.0312500
        k(   30) = (   0.2500000  -0.2500000   0.2500000), wk =   0.0312500
        k(   31) = (   0.2500000  -0.2500000  -0.5000000), wk =   0.0312500
        k(   32) = (   0.2500000  -0.2500000  -0.2500000), wk =   0.0312500
        k(   33) = (  -0.5000000   0.0000000   0.0000000), wk =   0.0312500
        k(   34) = (  -0.5000000   0.0000000   0.2500000), wk =   0.0312500
        k(   35) = (  -0.5000000   0.0000000  -0.5000000), wk =   0.0312500
        k(   36) = (  -0.5000000   0.0000000  -0.2500000), wk =   0.0312500
        k(   37) = (  -0.5000000   0.2500000   0.0000000), wk =   0.0312500
        k(   38) = (  -0.5000000   0.2500000   0.2500000), wk =   0.0312500
        k(   39) = (  -0.5000000   0.2500000  -0.5000000), wk =   0.0312500
        k(   40) = (  -0.5000000   0.2500000  -0.2500000), wk =   0.0312500
        k(   41) = (  -0.5000000  -0.5000000   0.0000000), wk =   0.0312500
        k(   42) = (  -0.5000000  -0.5000000   0.2500000), wk =   0.0312500
        k(   43) = (  -0.5000000  -0.5000000  -0.5000000), wk =   0.0312500
        k(   44) = (  -0.5000000  -0.5000000  -0.2500000), wk =   0.0312500
        k(   45) = (  -0.5000000  -0.2500000   0.0000000), wk =   0.0312500
        k(   46) = (  -0.5000000  -0.2500000   0.2500000), wk =   0.0312500
        k(   47) = (  -0.5000000  -0.2500000  -0.5000000), wk =   0.0312500
        k(   48) = (  -0.5000000  -0.2500000  -0.2500000), wk =   0.0312500
        k(   49) = (  -0.2500000   0.0000000   0.0000000), wk =   0.0312500
        k(   50) = (  -0.2500000   0.0000000   0.2500000), wk =   0.0312500
        k(   51) = (  -0.2500000   0.0000000  -0.5000000), wk =   0.0312500
        k(   52) = (  -0.2500000   0.0000000  -0.2500000), wk =   0.0312500
        k(   53) = (  -0.2500000   0.2500000   0.0000000), wk =   0.0312500
        k(   54) = (  -0.2500000   0.2500000   0.2500000), wk =   0.0312500
        k(   55) = (  -0.2500000   0.2500000  -0.5000000), wk =   0.0312500
        k(   56) = (  -0.2500000   0.2500000  -0.2500000), wk =   0.0312500
        k(   57) = (  -0.2500000  -0.5000000   0.0000000), wk =   0.0312500
        k(   58) = (  -0.2500000  -0.5000000   0.2500000), wk =   0.0312500
        k(   59) = (  -0.2500000  -0.5000000  -0.5000000), wk =   0.0312500
        k(   60) = (  -0.2500000  -0.5000000  -0.2500000), wk =   0.0312500
        k(   61) = (  -0.2500000  -0.2500000   0.0000000), wk =   0.0312500
        k(   62) = (  -0.2500000  -0.2500000   0.2500000), wk =   0.0312500
        k(   63) = (  -0.2500000  -0.2500000  -0.5000000), wk =   0.0312500
        k(   64) = (  -0.2500000  -0.2500000  -0.2500000), wk =   0.0312500

     Dense  grid:   261761 G-vectors     FFT dimensions: (  72,  72, 108)

     Smooth grid:   159925 G-vectors     FFT dimensions: (  60,  60,  90)

     Dynamical RAM for                 wfc:       1.26 MB

     Dynamical RAM for     wfc (w. buffer):      81.73 MB

     Dynamical RAM for           str. fact:       1.00 MB

     Dynamical RAM for           local pot:       0.00 MB

     Dynamical RAM for          nlocal pot:       1.41 MB

     Dynamical RAM for                qrad:       7.53 MB

     Dynamical RAM for          rho,v,vnew:       3.16 MB

     Dynamical RAM for           G-vectors:       2.02 MB

     Dynamical RAM for          h,s,v(r/c):       0.20 MB

     Dynamical RAM for          <psi|beta>:       0.02 MB

     Dynamical RAM for                 psi:       5.03 MB

     Dynamical RAM for                hpsi:       5.03 MB

     Dynamical RAM for                spsi:       5.03 MB

     Dynamical RAM for      wfcinit/wfcrot:       2.54 MB

     Dynamical RAM for           addusdens:     102.85 MB

     Estimated static dynamical RAM per process >     101.12 MB

     Estimated max dynamical RAM per process >     203.97 MB

     Estimated total dynamical RAM >       1.59 GB

     The potential is recalculated from file :
     /wrk/kfg/julia_data/MgS/dimer.in_vnscf_coords_7/qe.nscf.save/charge-density


     negative rho (up, down):  3.808E-05 0.000E+00
     Starting wfcs are   12 randomized atomic wfcs +   21 random wfcs

     Band Structure Calculation
     Davidson diagonalization with overlap

     Computing kpt #:     1  of    64
     total cpu time spent up to now is        3.1 secs

     Computing kpt #:     2  of    64
     total cpu time spent up to now is        5.0 secs

     Computing kpt #:     3  of    64
     total cpu time spent up to now is        6.8 secs

     Computing kpt #:     4  of    64
     total cpu time spent up to now is        8.7 secs

     Computing kpt #:     5  of    64
     total cpu time spent up to now is       10.7 secs

     Computing kpt #:     6  of    64
     total cpu time spent up to now is       12.5 secs

     Computing kpt #:     7  of    64
     total cpu time spent up to now is       14.4 secs

     Computing kpt #:     8  of    64
     total cpu time spent up to now is       16.2 secs

     Computing kpt #:     9  of    64
     total cpu time spent up to now is       18.0 secs

     Computing kpt #:    10  of    64
     total cpu time spent up to now is       19.8 secs

     Computing kpt #:    11  of    64
     total cpu time spent up to now is       21.8 secs

     Computing kpt #:    12  of    64
     total cpu time spent up to now is       23.6 secs

     Computing kpt #:    13  of    64
     total cpu time spent up to now is       26.1 secs

     Computing kpt #:    14  of    64
     total cpu time spent up to now is       27.9 secs

     Computing kpt #:    15  of    64
     total cpu time spent up to now is       29.8 secs

     Computing kpt #:    16  of    64
     total cpu time spent up to now is       31.6 secs

     Computing kpt #:    17  of    64
     total cpu time spent up to now is       34.1 secs

     Computing kpt #:    18  of    64
     total cpu time spent up to now is       35.9 secs

     Computing kpt #:    19  of    64
     total cpu time spent up to now is       38.0 secs

     Computing kpt #:    20  of    64
     total cpu time spent up to now is       39.8 secs

     Computing kpt #:    21  of    64
     total cpu time spent up to now is       41.7 secs

     Computing kpt #:    22  of    64
     total cpu time spent up to now is       43.6 secs

     Computing kpt #:    23  of    64
     total cpu time spent up to now is       46.0 secs

     Computing kpt #:    24  of    64
     total cpu time spent up to now is       47.8 secs

     Computing kpt #:    25  of    64
     total cpu time spent up to now is       49.9 secs

     Computing kpt #:    26  of    64
     total cpu time spent up to now is       51.7 secs

     Computing kpt #:    27  of    64
     total cpu time spent up to now is       53.6 secs

     Computing kpt #:    28  of    64
     total cpu time spent up to now is       55.4 secs

     Computing kpt #:    29  of    64
     total cpu time spent up to now is       57.8 secs

     Computing kpt #:    30  of    64
     total cpu time spent up to now is       59.7 secs

     Computing kpt #:    31  of    64
     total cpu time spent up to now is       61.7 secs

     Computing kpt #:    32  of    64
     total cpu time spent up to now is       63.8 secs

     Computing kpt #:    33  of    64
     total cpu time spent up to now is       65.6 secs

     Computing kpt #:    34  of    64
     total cpu time spent up to now is       67.3 secs

     Computing kpt #:    35  of    64
     total cpu time spent up to now is       69.4 secs

     Computing kpt #:    36  of    64
     total cpu time spent up to now is       71.3 secs

     Computing kpt #:    37  of    64
     total cpu time spent up to now is       73.1 secs

     Computing kpt #:    38  of    64
     total cpu time spent up to now is       74.9 secs

     Computing kpt #:    39  of    64
     total cpu time spent up to now is       77.0 secs

     Computing kpt #:    40  of    64
     total cpu time spent up to now is       78.8 secs

     Computing kpt #:    41  of    64
     total cpu time spent up to now is       81.0 secs

     Computing kpt #:    42  of    64
     total cpu time spent up to now is       83.0 secs

     Computing kpt #:    43  of    64
     total cpu time spent up to now is       85.1 secs

     Computing kpt #:    44  of    64
     total cpu time spent up to now is       87.2 secs

     Computing kpt #:    45  of    64
     total cpu time spent up to now is       89.4 secs

     Computing kpt #:    46  of    64
     total cpu time spent up to now is       91.3 secs

     Computing kpt #:    47  of    64
     total cpu time spent up to now is       93.4 secs

     Computing kpt #:    48  of    64
     total cpu time spent up to now is       95.2 secs

     Computing kpt #:    49  of    64
     total cpu time spent up to now is       97.7 secs

     Computing kpt #:    50  of    64
     total cpu time spent up to now is       99.5 secs

     Computing kpt #:    51  of    64
     total cpu time spent up to now is      101.4 secs

     Computing kpt #:    52  of    64
     total cpu time spent up to now is      103.2 secs

     Computing kpt #:    53  of    64
     total cpu time spent up to now is      105.0 secs

     Computing kpt #:    54  of    64
     total cpu time spent up to now is      106.9 secs

     Computing kpt #:    55  of    64
     total cpu time spent up to now is      109.1 secs

     Computing kpt #:    56  of    64
     total cpu time spent up to now is      110.9 secs

     Computing kpt #:    57  of    64
     total cpu time spent up to now is      113.0 secs

     Computing kpt #:    58  of    64
     total cpu time spent up to now is      114.8 secs

     Computing kpt #:    59  of    64
     total cpu time spent up to now is      116.7 secs

     Computing kpt #:    60  of    64
     total cpu time spent up to now is      118.5 secs

     Computing kpt #:    61  of    64
     total cpu time spent up to now is      120.4 secs

     Computing kpt #:    62  of    64
     total cpu time spent up to now is      122.3 secs

     Computing kpt #:    63  of    64
     total cpu time spent up to now is      124.4 secs

     Computing kpt #:    64  of    64
     total cpu time spent up to now is      126.2 secs

     ethr =  6.25E-12,  avg # of iterations = 41.1

     total cpu time spent up to now is      126.2 secs

     End of band structure calculation

          k = 0.0000 0.0000 0.0000 ( 19923 PWs)   bands (ev):

   -80.5962 -47.5569 -47.5569 -47.5183 -14.1224  -5.8607  -4.0376  -4.0376
    -3.7286  -0.5596  -0.5596   0.2050   0.3884   1.3953   1.4206   2.6395
     2.7101   2.7101   3.0537   3.3554   3.3582   3.6716   3.6716   3.6886
     4.2780   4.2863   4.2863   4.8932   5.1645   5.1645   5.1958   5.2814
     5.9757

     occupation numbers 
     1.0000   1.0000   1.0000   1.0000   1.0000   1.0000   0.9715   0.9715
     0.0953   0.0000   0.0000   0.0000   0.0000   0.0000   0.0000   0.0000
     0.0000   0.0000   0.0000   0.0000   0.0000   0.0000   0.0000   0.0000
     0.0000   0.0000   0.0000   0.0000   0.0000   0.0000   0.0000   0.0000
     0.0000

          k = 0.0000 0.0000 0.1750 ( 19971 PWs)   bands (ev):

   -80.5962 -47.5569 -47.5569 -47.5183 -14.1224  -5.8618  -4.0375  -4.0375
    -3.7221  -0.5625  -0.5625   0.1120   0.3650   1.4362   1.6523   2.5181
     2.7837   2.7837   3.0424   3.0602   3.6264   3.6416   3.6416   3.9277
     4.1082   4.1082   4.2255   4.5777   5.1142   5.3540   5.3797   5.3797
     5.9503

     occupation numbers 
     1.0000   1.0000   1.0000   1.0000   1.0000   1.0000   0.9714   0.9714
     0.0844   0.0000   0.0000   0.0000   0.0000   0.0000   0.0000   0.0000
     0.0000   0.0000   0.0000   0.0000   0.0000   0.0000   0.0000   0.0000
     0.0000   0.0000   0.0000   0.0000   0.0000   0.0000   0.0000   0.0000
     0.0000

          k = 0.0000 0.0000-0.3500 ( 19978 PWs)   bands (ev):

   -80.5962 -47.5569 -47.5569 -47.5183 -14.1224  -5.8629  -4.0374  -4.0374
    -3.7156  -0.5654  -0.5654   0.0237   0.3656   1.4527   1.8612   2.6348
     2.8780   2.8780   2.8844   3.0669   3.2442   3.5629   3.5629   3.9736
     4.0109   4.0109   4.6803   5.0023   5.0093   5.1663   5.3878   5.3878
     5.4059

     occupation numbers 
     1.0000   1.0000   1.0000   1.0000   1.0000   1.0000   0.9714   0.9714
     0.0744   0.0000   0.0000   0.0000   0.0000   0.0000   0.0000   0.0000
     0.0000   0.0000   0.0000   0.0000   0.0000   0.0000   0.0000   0.0000
     0.0000   0.0000   0.0000   0.0000   0.0000   0.0000   0.0000   0.0000
     0.0000

          k = 0.0000 0.0000-0.1750 ( 19971 PWs)   bands (ev):

   -80.5962 -47.5569 -47.5569 -47.5183 -14.1224  -5.8618  -4.0375  -4.0375
    -3.7221  -0.5625  -0.5625   0.1120   0.3650   1.4362   1.6523   2.5181
     2.7837   2.7837   3.0424   3.0602   3.6264   3.6416   3.6416   3.9277
     4.1082   4.1082   4.2255   4.5777   5.1142   5.3540   5.3797   5.3797
     5.9503

     occupation numbers 
     1.0000   1.0000   1.0000   1.0000   1.0000   1.0000   0.9714   0.9714
     0.0844   0.0000   0.0000   0.0000   0.0000   0.0000   0.0000   0.0000
     0.0000   0.0000   0.0000   0.0000   0.0000   0.0000   0.0000   0.0000
     0.0000   0.0000   0.0000   0.0000   0.0000   0.0000   0.0000   0.0000
     0.0000

          k = 0.0000 0.2500 0.0000 ( 19968 PWs)   bands (ev):

   -80.5962 -47.5569 -47.5569 -47.5183 -14.1223  -5.8569  -4.0526  -4.0363
    -3.7097  -0.8602  -0.5333   0.5090   0.5153   1.4989   1.6724   2.1526
     2.4159   2.4955   2.9478   3.0741   3.1421   3.7524   4.0805   4.0960
     4.4383   4.4420   4.7413   4.9386   5.0446   5.1505   5.2712   5.5307
     5.5962

     occupation numbers 
     1.0000   1.0000   1.0000   1.0000   1.0000   1.0000   0.9803   0.9706
     0.0662   0.0000   0.0000   0.0000   0.0000   0.0000   0.0000   0.0000
     0.0000   0.0000   0.0000   0.0000   0.0000   0.0000   0.0000   0.0000
     0.0000   0.0000   0.0000   0.0000   0.0000   0.0000   0.0000   0.0000
     0.0000

          k = 0.0000 0.2500 0.1750 ( 19980 PWs)   bands (ev):

   -80.5962 -47.5569 -47.5569 -47.5183 -14.1223  -5.8580  -4.0525  -4.0362
    -3.7036  -0.8631  -0.5361   0.2786   0.6690   1.5572   1.8124   2.0448
     2.4419   2.7058   2.8857   2.9925   3.2442   3.7493   3.9269   4.1617
     4.3212   4.4129   4.5902   4.8204   4.8554   5.1271   5.3246   5.3881
     5.6771

     occupation numbers 
     1.0000   1.0000   1.0000   1.0000   1.0000   1.0000   0.9802   0.9706
     0.0584   0.0000   0.0000   0.0000   0.0000   0.0000   0.0000   0.0000
     0.0000   0.0000   0.0000   0.0000   0.0000   0.0000   0.0000   0.0000
     0.0000   0.0000   0.0000   0.0000   0.0000   0.0000   0.0000   0.0000
     0.0000

          k = 0.0000 0.2500-0.3500 ( 19962 PWs)   bands (ev):

   -80.5962 -47.5569 -47.5569 -47.5183 -14.1223  -5.8590  -4.0523  -4.0361
    -3.6974  -0.8661  -0.5389   0.1684   0.7174   1.6351   1.7288   2.2593
     2.4694   2.6960   3.0243   3.0403   3.2851   3.3997   3.8330   4.1415
     4.2253   4.3223   4.6229   4.6706   4.9883   5.1433   5.4610   5.5941
     5.8244

     occupation numbers 
     1.0000   1.0000   1.0000   1.0000   1.0000   1.0000   0.9801   0.9705
     0.0512   0.0000   0.0000   0.0000   0.0000   0.0000   0.0000   0.0000
     0.0000   0.0000   0.0000   0.0000   0.0000   0.0000   0.0000   0.0000
     0.0000   0.0000   0.0000   0.0000   0.0000   0.0000   0.0000   0.0000
     0.0000

          k = 0.0000 0.2500-0.1750 ( 19980 PWs)   bands (ev):

   -80.5962 -47.5569 -47.5569 -47.5183 -14.1223  -5.8580  -4.0525  -4.0362
    -3.7036  -0.8631  -0.5361   0.2786   0.6690   1.5572   1.8124   2.0448
     2.4419   2.7058   2.8857   2.9925   3.2442   3.7493   3.9269   4.1617
     4.3212   4.4129   4.5902   4.8204   4.8554   5.1271   5.3246   5.3881
     5.6771

     occupation numbers 
     1.0000   1.0000   1.0000   1.0000   1.0000   1.0000   0.9802   0.9706
     0.0584   0.0000   0.0000   0.0000   0.0000   0.0000   0.0000   0.0000
     0.0000   0.0000   0.0000   0.0000   0.0000   0.0000   0.0000   0.0000
     0.0000   0.0000   0.0000   0.0000   0.0000   0.0000   0.0000   0.0000
     0.0000

          k = 0.0000-0.5000 0.0000 ( 20022 PWs)   bands (ev):

   -80.5962 -47.5569 -47.5569 -47.5183 -14.1222  -5.8531  -4.0670  -4.0350
    -3.6908  -1.0613  -0.5054   0.6806   0.9119   1.1486   1.9015   1.9256
     2.1557   2.4531   3.0642   3.0670   3.4515   3.5026   4.0571   4.0755
     4.1818   4.3903   4.6217   4.8182   4.9485   5.1782   5.4279   5.7433
     5.7545

     occupation numbers 
     1.0000   1.0000   1.0000   1.0000   1.0000   1.0000   0.9864   0.9697
     0.0444   0.0000   0.0000   0.0000   0.0000   0.0000   0.0000   0.0000
     0.0000   0.0000   0.0000   0.0000   0.0000   0.0000   0.0000   0.0000
     0.0000   0.0000   0.0000   0.0000   0.0000   0.0000   0.0000   0.0000
     0.0000

          k = 0.0000-0.5000 0.1750 ( 19978 PWs)   bands (ev):

   -80.5962 -47.5569 -47.5569 -47.5183 -14.1222  -5.8541  -4.0668  -4.0349
    -3.6849  -1.0650  -0.5081   0.5037   1.0114   1.1742   1.8005   2.1573
     2.1711   2.6399   2.9420   3.1539   3.4662   3.4919   3.7643   4.1267
     4.2648   4.3390   4.4116   4.7571   4.9136   5.2651   5.3442   5.6106
     5.8901

     occupation numbers 
     1.0000   1.0000   1.0000   1.0000   1.0000   1.0000   0.9864   0.9697
     0.0390   0.0000   0.0000   0.0000   0.0000   0.0000   0.0000   0.0000
     0.0000   0.0000   0.0000   0.0000   0.0000   0.0000   0.0000   0.0000
     0.0000   0.0000   0.0000   0.0000   0.0000   0.0000   0.0000   0.0000
     0.0000

          k = 0.0000-0.5000-0.3500 ( 19976 PWs)   bands (ev):

   -80.5962 -47.5569 -47.5569 -47.5183 -14.1222  -5.8551  -4.0666  -4.0349
    -3.6790  -1.0687  -0.5107   0.3911   1.0584   1.2045   1.7157   2.1875
     2.3898   2.8744   2.9373   3.2671   3.3866   3.4614   3.6083   3.9852
     4.0558   4.1361   4.1905   5.0013   5.3289   5.4296   5.5566   5.6149
     5.6762

     occupation numbers 
     1.0000   1.0000   1.0000   1.0000   1.0000   1.0000   0.9863   0.9696
     0.0341   0.0000   0.0000   0.0000   0.0000   0.0000   0.0000   0.0000
     0.0000   0.0000   0.0000   0.0000   0.0000   0.0000   0.0000   0.0000
     0.0000   0.0000   0.0000   0.0000   0.0000   0.0000   0.0000   0.0000
     0.0000

          k = 0.0000-0.5000-0.1750 ( 19978 PWs)   bands (ev):

   -80.5962 -47.5569 -47.5569 -47.5183 -14.1222  -5.8541  -4.0668  -4.0349
    -3.6849  -1.0650  -0.5081   0.5037   1.0114   1.1742   1.8005   2.1573
     2.1711   2.6399   2.9420   3.1539   3.4662   3.4919   3.7643   4.1267
     4.2648   4.3390   4.4116   4.7571   4.9136   5.2651   5.3442   5.6106
     5.8901

     occupation numbers 
     1.0000   1.0000   1.0000   1.0000   1.0000   1.0000   0.9864   0.9697
     0.0390   0.0000   0.0000   0.0000   0.0000   0.0000   0.0000   0.0000
     0.0000   0.0000   0.0000   0.0000   0.0000   0.0000   0.0000   0.0000
     0.0000   0.0000   0.0000   0.0000   0.0000   0.0000   0.0000   0.0000
     0.0000

          k = 0.0000-0.2500 0.0000 ( 19968 PWs)   bands (ev):

   -80.5962 -47.5569 -47.5569 -47.5183 -14.1223  -5.8569  -4.0526  -4.0363
    -3.7097  -0.8602  -0.5333   0.5090   0.5153   1.4989   1.6724   2.1526
     2.4159   2.4955   2.9478   3.0741   3.1421   3.7524   4.0805   4.0960
     4.4383   4.4420   4.7413   4.9386   5.0446   5.1505   5.2712   5.5307
     5.5962

     occupation numbers 
     1.0000   1.0000   1.0000   1.0000   1.0000   1.0000   0.9803   0.9706
     0.0662   0.0000   0.0000   0.0000   0.0000   0.0000   0.0000   0.0000
     0.0000   0.0000   0.0000   0.0000   0.0000   0.0000   0.0000   0.0000
     0.0000   0.0000   0.0000   0.0000   0.0000   0.0000   0.0000   0.0000
     0.0000

          k = 0.0000-0.2500 0.1750 ( 19980 PWs)   bands (ev):

   -80.5962 -47.5569 -47.5569 -47.5183 -14.1223  -5.8580  -4.0525  -4.0362
    -3.7036  -0.8631  -0.5361   0.2786   0.6690   1.5572   1.8124   2.0448
     2.4419   2.7058   2.8857   2.9925   3.2442   3.7493   3.9269   4.1617
     4.3212   4.4129   4.5902   4.8204   4.8554   5.1271   5.3246   5.3881
     5.6771

     occupation numbers 
     1.0000   1.0000   1.0000   1.0000   1.0000   1.0000   0.9802   0.9706
     0.0584   0.0000   0.0000   0.0000   0.0000   0.0000   0.0000   0.0000
     0.0000   0.0000   0.0000   0.0000   0.0000   0.0000   0.0000   0.0000
     0.0000   0.0000   0.0000   0.0000   0.0000   0.0000   0.0000   0.0000
     0.0000

          k = 0.0000-0.2500-0.3500 ( 19962 PWs)   bands (ev):

   -80.5962 -47.5569 -47.5569 -47.5183 -14.1223  -5.8590  -4.0523  -4.0361
    -3.6974  -0.8661  -0.5389   0.1684   0.7174   1.6351   1.7288   2.2593
     2.4694   2.6960   3.0243   3.0403   3.2851   3.3997   3.8330   4.1415
     4.2253   4.3223   4.6229   4.6706   4.9883   5.1433   5.4610   5.5941
     5.8244

     occupation numbers 
     1.0000   1.0000   1.0000   1.0000   1.0000   1.0000   0.9801   0.9705
     0.0512   0.0000   0.0000   0.0000   0.0000   0.0000   0.0000   0.0000
     0.0000   0.0000   0.0000   0.0000   0.0000   0.0000   0.0000   0.0000
     0.0000   0.0000   0.0000   0.0000   0.0000   0.0000   0.0000   0.0000
     0.0000

          k = 0.0000-0.2500-0.1750 ( 19980 PWs)   bands (ev):

   -80.5962 -47.5569 -47.5569 -47.5183 -14.1223  -5.8580  -4.0525  -4.0362
    -3.7036  -0.8631  -0.5361   0.2786   0.6690   1.5572   1.8124   2.0448
     2.4419   2.7058   2.8857   2.9925   3.2442   3.7493   3.9269   4.1617
     4.3212   4.4129   4.5902   4.8204   4.8554   5.1271   5.3246   5.3881
     5.6771

     occupation numbers 
     1.0000   1.0000   1.0000   1.0000   1.0000   1.0000   0.9802   0.9706
     0.0584   0.0000   0.0000   0.0000   0.0000   0.0000   0.0000   0.0000
     0.0000   0.0000   0.0000   0.0000   0.0000   0.0000   0.0000   0.0000
     0.0000   0.0000   0.0000   0.0000   0.0000   0.0000   0.0000   0.0000
     0.0000

          k = 0.2500 0.0000 0.0000 ( 19968 PWs)   bands (ev):

   -80.5962 -47.5569 -47.5569 -47.5183 -14.1223  -5.8569  -4.0526  -4.0363
    -3.7097  -0.8602  -0.5333   0.5090   0.5153   1.4989   1.6724   2.1526
     2.4159   2.4955   2.9478   3.0741   3.1421   3.7524   4.0805   4.0960
     4.4383   4.4420   4.7413   4.9386   5.0446   5.1505   5.2712   5.5307
     5.5962

     occupation numbers 
     1.0000   1.0000   1.0000   1.0000   1.0000   1.0000   0.9803   0.9706
     0.0662   0.0000   0.0000   0.0000   0.0000   0.0000   0.0000   0.0000
     0.0000   0.0000   0.0000   0.0000   0.0000   0.0000   0.0000   0.0000
     0.0000   0.0000   0.0000   0.0000   0.0000   0.0000   0.0000   0.0000
     0.0000

          k = 0.2500 0.0000 0.1750 ( 19980 PWs)   bands (ev):

   -80.5962 -47.5569 -47.5569 -47.5183 -14.1223  -5.8580  -4.0525  -4.0362
    -3.7036  -0.8631  -0.5361   0.2786   0.6690   1.5572   1.8124   2.0448
     2.4419   2.7058   2.8857   2.9925   3.2442   3.7493   3.9269   4.1617
     4.3212   4.4129   4.5902   4.8204   4.8554   5.1271   5.3246   5.3881
     5.6771

     occupation numbers 
     1.0000   1.0000   1.0000   1.0000   1.0000   1.0000   0.9802   0.9706
     0.0584   0.0000   0.0000   0.0000   0.0000   0.0000   0.0000   0.0000
     0.0000   0.0000   0.0000   0.0000   0.0000   0.0000   0.0000   0.0000
     0.0000   0.0000   0.0000   0.0000   0.0000   0.0000   0.0000   0.0000
     0.0000

          k = 0.2500 0.0000-0.3500 ( 19962 PWs)   bands (ev):

   -80.5962 -47.5569 -47.5569 -47.5183 -14.1223  -5.8590  -4.0523  -4.0361
    -3.6974  -0.8661  -0.5389   0.1684   0.7174   1.6351   1.7288   2.2593
     2.4694   2.6960   3.0243   3.0403   3.2851   3.3997   3.8330   4.1415
     4.2253   4.3223   4.6229   4.6706   4.9883   5.1433   5.4610   5.5941
     5.8244

     occupation numbers 
     1.0000   1.0000   1.0000   1.0000   1.0000   1.0000   0.9801   0.9705
     0.0512   0.0000   0.0000   0.0000   0.0000   0.0000   0.0000   0.0000
     0.0000   0.0000   0.0000   0.0000   0.0000   0.0000   0.0000   0.0000
     0.0000   0.0000   0.0000   0.0000   0.0000   0.0000   0.0000   0.0000
     0.0000

          k = 0.2500 0.0000-0.1750 ( 19980 PWs)   bands (ev):

   -80.5962 -47.5569 -47.5569 -47.5183 -14.1223  -5.8580  -4.0525  -4.0362
    -3.7036  -0.8631  -0.5361   0.2786   0.6690   1.5572   1.8124   2.0448
     2.4419   2.7058   2.8857   2.9925   3.2442   3.7493   3.9269   4.1617
     4.3212   4.4129   4.5902   4.8204   4.8554   5.1271   5.3246   5.3881
     5.6771

     occupation numbers 
     1.0000   1.0000   1.0000   1.0000   1.0000   1.0000   0.9802   0.9706
     0.0584   0.0000   0.0000   0.0000   0.0000   0.0000   0.0000   0.0000
     0.0000   0.0000   0.0000   0.0000   0.0000   0.0000   0.0000   0.0000
     0.0000   0.0000   0.0000   0.0000   0.0000   0.0000   0.0000   0.0000
     0.0000

          k = 0.2500 0.2500 0.0000 ( 19983 PWs)   bands (ev):

   -80.5962 -47.5569 -47.5569 -47.5183 -14.1222  -5.8533  -4.0516  -4.0503
    -3.6918  -0.8432  -0.7790   0.6253   0.7941   1.6071   1.7513   2.0114
     2.1743   2.3811   2.7138   3.0041   3.4770   3.6623   3.9753   4.1226
     4.3214   4.4447   4.7916   5.0103   5.1025   5.3284   5.3941   5.6127
     5.8637

     occupation numbers 
     1.0000   1.0000   1.0000   1.0000   1.0000   1.0000   0.9798   0.9791
     0.0455   0.0000   0.0000   0.0000   0.0000   0.0000   0.0000   0.0000
     0.0000   0.0000   0.0000   0.0000   0.0000   0.0000   0.0000   0.0000
     0.0000   0.0000   0.0000   0.0000   0.0000   0.0000   0.0000   0.0000
     0.0000

          k = 0.2500 0.2500 0.1750 ( 19985 PWs)   bands (ev):

   -80.5962 -47.5569 -47.5569 -47.5183 -14.1222  -5.8543  -4.0515  -4.0501
    -3.6859  -0.8460  -0.7824   0.4222   0.9611   1.7082   1.8123   1.8567
     2.2611   2.2768   3.0094   3.1399   3.2805   3.6997   3.9775   4.0721
     4.2440   4.4932   4.7374   4.7551   4.9294   5.2327   5.4448   5.5654
     5.8896

     occupation numbers 
     1.0000   1.0000   1.0000   1.0000   1.0000   1.0000   0.9797   0.9790
     0.0399   0.0000   0.0000   0.0000   0.0000   0.0000   0.0000   0.0000
     0.0000   0.0000   0.0000   0.0000   0.0000   0.0000   0.0000   0.0000
     0.0000   0.0000   0.0000   0.0000   0.0000   0.0000   0.0000   0.0000
     0.0000

          k = 0.2500 0.2500-0.3500 ( 19980 PWs)   bands (ev):

   -80.5962 -47.5569 -47.5569 -47.5183 -14.1222  -5.8553  -4.0513  -4.0500
    -3.6800  -0.8489  -0.7857   0.3082   1.0578   1.6852   1.8033   1.9172
     2.1104   2.5529   3.0613   3.2894   3.3063   3.7100   3.7297   3.9718
     4.2786   4.3717   4.6108   4.7553   5.0378   5.1985   5.4488   5.6109
     5.7747

     occupation numbers 
     1.0000   1.0000   1.0000   1.0000   1.0000   1.0000   0.9796   0.9790
     0.0349   0.0000   0.0000   0.0000   0.0000   0.0000   0.0000   0.0000
     0.0000   0.0000   0.0000   0.0000   0.0000   0.0000   0.0000   0.0000
     0.0000   0.0000   0.0000   0.0000   0.0000   0.0000   0.0000   0.0000
     0.0000

          k = 0.2500 0.2500-0.1750 ( 19985 PWs)   bands (ev):

   -80.5962 -47.5569 -47.5569 -47.5183 -14.1222  -5.8543  -4.0515  -4.0501
    -3.6859  -0.8460  -0.7824   0.4222   0.9611   1.7082   1.8123   1.8567
     2.2611   2.2768   3.0094   3.1399   3.2805   3.6997   3.9775   4.0721
     4.2440   4.4932   4.7374   4.7551   4.9294   5.2327   5.4448   5.5654
     5.8896

     occupation numbers 
     1.0000   1.0000   1.0000   1.0000   1.0000   1.0000   0.9797   0.9790
     0.0399   0.0000   0.0000   0.0000   0.0000   0.0000   0.0000   0.0000
     0.0000   0.0000   0.0000   0.0000   0.0000   0.0000   0.0000   0.0000
     0.0000   0.0000   0.0000   0.0000   0.0000   0.0000   0.0000   0.0000
     0.0000

          k = 0.2500-0.5000 0.0000 ( 20020 PWs)   bands (ev):

   -80.5962 -47.5569 -47.5569 -47.5183 -14.1222  -5.8496  -4.0650  -4.0493
    -3.6738  -1.0071  -0.7589   0.7972   1.0396   1.3007   1.6170   2.1773
     2.2176   2.4889   2.8977   3.0020   3.0946   3.5148   3.5826   4.2023
     4.2561   4.6050   4.7856   4.9941   5.4139   5.5436   5.6648   5.7870
     5.9336

     occupation numbers 
     1.0000   1.0000   1.0000   1.0000   1.0000   1.0000   0.9857   0.9786
     0.0302   0.0000   0.0000   0.0000   0.0000   0.0000   0.0000   0.0000
     0.0000   0.0000   0.0000   0.0000   0.0000   0.0000   0.0000   0.0000
     0.0000   0.0000   0.0000   0.0000   0.0000   0.0000   0.0000   0.0000
     0.0000

          k = 0.2500-0.5000 0.1750 ( 19978 PWs)   bands (ev):

   -80.5962 -47.5569 -47.5569 -47.5183 -14.1222  -5.8505  -4.0648  -4.0491
    -3.6682  -1.0108  -0.7622   0.6316   1.0890   1.4726   1.5202   2.2508
     2.3043   2.4433   2.7883   3.1342   3.1801   3.6064   3.7497   4.0958
     4.1911   4.5486   4.5513   5.0572   5.2687   5.3078   5.4831   5.5283
     5.8162

     occupation numbers 
     1.0000   1.0000   1.0000   1.0000   1.0000   1.0000   0.9856   0.9785
     0.0264   0.0000   0.0000   0.0000   0.0000   0.0000   0.0000   0.0000
     0.0000   0.0000   0.0000   0.0000   0.0000   0.0000   0.0000   0.0000
     0.0000   0.0000   0.0000   0.0000   0.0000   0.0000   0.0000   0.0000
     0.0000

          k = 0.2500-0.5000-0.3500 ( 19992 PWs)   bands (ev):

   -80.5962 -47.5569 -47.5569 -47.5183 -14.1222  -5.8515  -4.0646  -4.0490
    -3.6625  -1.0146  -0.7656   0.5190   1.1683   1.3983   1.6038   2.1749
     2.3526   2.6648   2.7409   3.1940   3.2140   3.6884   3.9303   4.0066
     4.1031   4.3750   4.7004   4.7432   4.9101   5.2622   5.3090   5.7200
     5.9099

     occupation numbers 
     1.0000   1.0000   1.0000   1.0000   1.0000   1.0000   0.9855   0.9784
     0.0230   0.0000   0.0000   0.0000   0.0000   0.0000   0.0000   0.0000
     0.0000   0.0000   0.0000   0.0000   0.0000   0.0000   0.0000   0.0000
     0.0000   0.0000   0.0000   0.0000   0.0000   0.0000   0.0000   0.0000
     0.0000

          k = 0.2500-0.5000-0.1750 ( 19978 PWs)   bands (ev):

   -80.5962 -47.5569 -47.5569 -47.5183 -14.1222  -5.8505  -4.0648  -4.0491
    -3.6682  -1.0108  -0.7622   0.6316   1.0890   1.4726   1.5202   2.2508
     2.3043   2.4433   2.7883   3.1342   3.1801   3.6064   3.7497   4.0958
     4.1911   4.5486   4.5513   5.0572   5.2687   5.3078   5.4831   5.5283
     5.8162

     occupation numbers 
     1.0000   1.0000   1.0000   1.0000   1.0000   1.0000   0.9856   0.9785
     0.0264   0.0000   0.0000   0.0000   0.0000   0.0000   0.0000   0.0000
     0.0000   0.0000   0.0000   0.0000   0.0000   0.0000   0.0000   0.0000
     0.0000   0.0000   0.0000   0.0000   0.0000   0.0000   0.0000   0.0000
     0.0000

          k = 0.2500-0.2500 0.0000 ( 19983 PWs)   bands (ev):

   -80.5962 -47.5569 -47.5569 -47.5183 -14.1222  -5.8533  -4.0516  -4.0503
    -3.6918  -0.8432  -0.7790   0.6253   0.7941   1.6071   1.7513   2.0114
     2.1743   2.3811   2.7138   3.0041   3.4770   3.6623   3.9753   4.1226
     4.3214   4.4447   4.7916   5.0103   5.1025   5.3284   5.3941   5.6127
     5.8637

     occupation numbers 
     1.0000   1.0000   1.0000   1.0000   1.0000   1.0000   0.9798   0.9791
     0.0455   0.0000   0.0000   0.0000   0.0000   0.0000   0.0000   0.0000
     0.0000   0.0000   0.0000   0.0000   0.0000   0.0000   0.0000   0.0000
     0.0000   0.0000   0.0000   0.0000   0.0000   0.0000   0.0000   0.0000
     0.0000

          k = 0.2500-0.2500 0.1750 ( 19985 PWs)   bands (ev):

   -80.5962 -47.5569 -47.5569 -47.5183 -14.1222  -5.8543  -4.0515  -4.0501
    -3.6859  -0.8460  -0.7824   0.4222   0.9611   1.7082   1.8123   1.8567
     2.2611   2.2768   3.0094   3.1399   3.2805   3.6997   3.9775   4.0721
     4.2440   4.4932   4.7374   4.7551   4.9294   5.2327   5.4448   5.5654
     5.8896

     occupation numbers 
     1.0000   1.0000   1.0000   1.0000   1.0000   1.0000   0.9797   0.9790
     0.0399   0.0000   0.0000   0.0000   0.0000   0.0000   0.0000   0.0000
     0.0000   0.0000   0.0000   0.0000   0.0000   0.0000   0.0000   0.0000
     0.0000   0.0000   0.0000   0.0000   0.0000   0.0000   0.0000   0.0000
     0.0000

          k = 0.2500-0.2500-0.3500 ( 19980 PWs)   bands (ev):

   -80.5962 -47.5569 -47.5569 -47.5183 -14.1222  -5.8553  -4.0513  -4.0500
    -3.6800  -0.8489  -0.7857   0.3082   1.0578   1.6852   1.8033   1.9172
     2.1104   2.5529   3.0613   3.2894   3.3063   3.7100   3.7297   3.9718
     4.2786   4.3717   4.6108   4.7553   5.0378   5.1985   5.4488   5.6109
     5.7747

     occupation numbers 
     1.0000   1.0000   1.0000   1.0000   1.0000   1.0000   0.9796   0.9790
     0.0349   0.0000   0.0000   0.0000   0.0000   0.0000   0.0000   0.0000
     0.0000   0.0000   0.0000   0.0000   0.0000   0.0000   0.0000   0.0000
     0.0000   0.0000   0.0000   0.0000   0.0000   0.0000   0.0000   0.0000
     0.0000

          k = 0.2500-0.2500-0.1750 ( 19985 PWs)   bands (ev):

   -80.5962 -47.5569 -47.5569 -47.5183 -14.1222  -5.8543  -4.0515  -4.0501
    -3.6859  -0.8460  -0.7824   0.4222   0.9611   1.7082   1.8123   1.8567
     2.2611   2.2768   3.0094   3.1399   3.2805   3.6997   3.9775   4.0721
     4.2440   4.4932   4.7374   4.7551   4.9294   5.2327   5.4448   5.5654
     5.8896

     occupation numbers 
     1.0000   1.0000   1.0000   1.0000   1.0000   1.0000   0.9797   0.9790
     0.0399   0.0000   0.0000   0.0000   0.0000   0.0000   0.0000   0.0000
     0.0000   0.0000   0.0000   0.0000   0.0000   0.0000   0.0000   0.0000
     0.0000   0.0000   0.0000   0.0000   0.0000   0.0000   0.0000   0.0000
     0.0000

          k =-0.5000 0.0000 0.0000 ( 20022 PWs)   bands (ev):

   -80.5962 -47.5569 -47.5569 -47.5183 -14.1222  -5.8531  -4.0670  -4.0350
    -3.6908  -1.0613  -0.5054   0.6806   0.9119   1.1486   1.9015   1.9256
     2.1557   2.4531   3.0642   3.0670   3.4515   3.5026   4.0571   4.0755
     4.1818   4.3903   4.6217   4.8182   4.9485   5.1782   5.4279   5.7433
     5.7545

     occupation numbers 
     1.0000   1.0000   1.0000   1.0000   1.0000   1.0000   0.9864   0.9697
     0.0444   0.0000   0.0000   0.0000   0.0000   0.0000   0.0000   0.0000
     0.0000   0.0000   0.0000   0.0000   0.0000   0.0000   0.0000   0.0000
     0.0000   0.0000   0.0000   0.0000   0.0000   0.0000   0.0000   0.0000
     0.0000

          k =-0.5000 0.0000 0.1750 ( 19978 PWs)   bands (ev):

   -80.5962 -47.5569 -47.5569 -47.5183 -14.1222  -5.8541  -4.0668  -4.0349
    -3.6849  -1.0650  -0.5081   0.5037   1.0114   1.1742   1.8005   2.1573
     2.1711   2.6399   2.9420   3.1539   3.4662   3.4919   3.7643   4.1267
     4.2648   4.3390   4.4116   4.7571   4.9136   5.2651   5.3442   5.6106
     5.8901

     occupation numbers 
     1.0000   1.0000   1.0000   1.0000   1.0000   1.0000   0.9864   0.9697
     0.0390   0.0000   0.0000   0.0000   0.0000   0.0000   0.0000   0.0000
     0.0000   0.0000   0.0000   0.0000   0.0000   0.0000   0.0000   0.0000
     0.0000   0.0000   0.0000   0.0000   0.0000   0.0000   0.0000   0.0000
     0.0000

          k =-0.5000 0.0000-0.3500 ( 19976 PWs)   bands (ev):

   -80.5962 -47.5569 -47.5569 -47.5183 -14.1222  -5.8551  -4.0666  -4.0349
    -3.6790  -1.0687  -0.5107   0.3911   1.0584   1.2045   1.7157   2.1875
     2.3898   2.8744   2.9373   3.2671   3.3866   3.4614   3.6083   3.9852
     4.0558   4.1361   4.1905   5.0013   5.3289   5.4296   5.5566   5.6149
     5.6762

     occupation numbers 
     1.0000   1.0000   1.0000   1.0000   1.0000   1.0000   0.9863   0.9696
     0.0341   0.0000   0.0000   0.0000   0.0000   0.0000   0.0000   0.0000
     0.0000   0.0000   0.0000   0.0000   0.0000   0.0000   0.0000   0.0000
     0.0000   0.0000   0.0000   0.0000   0.0000   0.0000   0.0000   0.0000
     0.0000

          k =-0.5000 0.0000-0.1750 ( 19978 PWs)   bands (ev):

   -80.5962 -47.5569 -47.5569 -47.5183 -14.1222  -5.8541  -4.0668  -4.0349
    -3.6849  -1.0650  -0.5081   0.5037   1.0114   1.1742   1.8005   2.1573
     2.1711   2.6399   2.9420   3.1539   3.4662   3.4919   3.7643   4.1267
     4.2648   4.3390   4.4116   4.7571   4.9136   5.2651   5.3442   5.6106
     5.8901

     occupation numbers 
     1.0000   1.0000   1.0000   1.0000   1.0000   1.0000   0.9864   0.9697
     0.0390   0.0000   0.0000   0.0000   0.0000   0.0000   0.0000   0.0000
     0.0000   0.0000   0.0000   0.0000   0.0000   0.0000   0.0000   0.0000
     0.0000   0.0000   0.0000   0.0000   0.0000   0.0000   0.0000   0.0000
     0.0000

          k =-0.5000 0.2500 0.0000 ( 20020 PWs)   bands (ev):

   -80.5962 -47.5569 -47.5569 -47.5183 -14.1222  -5.8496  -4.0650  -4.0493
    -3.6738  -1.0071  -0.7589   0.7972   1.0396   1.3007   1.6170   2.1773
     2.2176   2.4889   2.8977   3.0020   3.0946   3.5148   3.5826   4.2023
     4.2561   4.6050   4.7856   4.9941   5.4139   5.5436   5.6648   5.7870
     5.9336

     occupation numbers 
     1.0000   1.0000   1.0000   1.0000   1.0000   1.0000   0.9857   0.9786
     0.0302   0.0000   0.0000   0.0000   0.0000   0.0000   0.0000   0.0000
     0.0000   0.0000   0.0000   0.0000   0.0000   0.0000   0.0000   0.0000
     0.0000   0.0000   0.0000   0.0000   0.0000   0.0000   0.0000   0.0000
     0.0000

          k =-0.5000 0.2500 0.1750 ( 19978 PWs)   bands (ev):

   -80.5962 -47.5569 -47.5569 -47.5183 -14.1222  -5.8505  -4.0648  -4.0491
    -3.6682  -1.0108  -0.7622   0.6316   1.0890   1.4726   1.5202   2.2508
     2.3043   2.4433   2.7883   3.1342   3.1801   3.6064   3.7497   4.0958
     4.1911   4.5486   4.5513   5.0572   5.2687   5.3078   5.4831   5.5283
     5.8162

     occupation numbers 
     1.0000   1.0000   1.0000   1.0000   1.0000   1.0000   0.9856   0.9785
     0.0264   0.0000   0.0000   0.0000   0.0000   0.0000   0.0000   0.0000
     0.0000   0.0000   0.0000   0.0000   0.0000   0.0000   0.0000   0.0000
     0.0000   0.0000   0.0000   0.0000   0.0000   0.0000   0.0000   0.0000
     0.0000

          k =-0.5000 0.2500-0.3500 ( 19992 PWs)   bands (ev):

   -80.5962 -47.5569 -47.5569 -47.5183 -14.1222  -5.8515  -4.0646  -4.0490
    -3.6625  -1.0146  -0.7656   0.5190   1.1683   1.3983   1.6038   2.1749
     2.3526   2.6648   2.7409   3.1940   3.2140   3.6884   3.9303   4.0066
     4.1031   4.3750   4.7004   4.7432   4.9101   5.2622   5.3090   5.7200
     5.9099

     occupation numbers 
     1.0000   1.0000   1.0000   1.0000   1.0000   1.0000   0.9855   0.9784
     0.0230   0.0000   0.0000   0.0000   0.0000   0.0000   0.0000   0.0000
     0.0000   0.0000   0.0000   0.0000   0.0000   0.0000   0.0000   0.0000
     0.0000   0.0000   0.0000   0.0000   0.0000   0.0000   0.0000   0.0000
     0.0000

          k =-0.5000 0.2500-0.1750 ( 19978 PWs)   bands (ev):

   -80.5962 -47.5569 -47.5569 -47.5183 -14.1222  -5.8505  -4.0648  -4.0491
    -3.6682  -1.0108  -0.7622   0.6316   1.0890   1.4726   1.5202   2.2508
     2.3043   2.4433   2.7883   3.1342   3.1801   3.6064   3.7497   4.0958
     4.1911   4.5486   4.5513   5.0572   5.2687   5.3078   5.4831   5.5283
     5.8162

     occupation numbers 
     1.0000   1.0000   1.0000   1.0000   1.0000   1.0000   0.9856   0.9785
     0.0264   0.0000   0.0000   0.0000   0.0000   0.0000   0.0000   0.0000
     0.0000   0.0000   0.0000   0.0000   0.0000   0.0000   0.0000   0.0000
     0.0000   0.0000   0.0000   0.0000   0.0000   0.0000   0.0000   0.0000
     0.0000

          k =-0.5000-0.5000 0.0000 ( 20028 PWs)   bands (ev):

   -80.5962 -47.5569 -47.5569 -47.5183 -14.1221  -5.8460  -4.0630  -4.0630
    -3.6568  -0.9445  -0.9445   0.8181   0.9415   1.6877   1.6877   2.0045
     2.4980   2.5497   2.5497   2.6781   3.4482   3.4482   3.6092   3.6098
     4.5717   4.7047   4.7047   4.7607   5.9150   5.9150   5.9438   5.9836
     6.1647

     occupation numbers 
     1.0000   1.0000   1.0000   1.0000   1.0000   1.0000   0.9849   0.9849
     0.0200   0.0000   0.0000   0.0000   0.0000   0.0000   0.0000   0.0000
     0.0000   0.0000   0.0000   0.0000   0.0000   0.0000   0.0000   0.0000
     0.0000   0.0000   0.0000   0.0000   0.0000   0.0000   0.0000   0.0000
     0.0000

          k =-0.5000-0.5000 0.1750 ( 19944 PWs)   bands (ev):

   -80.5962 -47.5569 -47.5569 -47.5183 -14.1221  -5.8469  -4.0628  -4.0628
    -3.6514  -0.9485  -0.9485   0.8011   0.8472   1.7170   1.7170   2.0928
     2.2932   2.5509   2.5509   3.2939   3.4230   3.4230   3.5261   3.6130
     4.6025   4.6402   4.6402   4.7359   5.3216   5.5513   5.8871   5.9441
     5.9441

     occupation numbers 
     1.0000   1.0000   1.0000   1.0000   1.0000   1.0000   0.9848   0.9848
     0.0174   0.0000   0.0000   0.0000   0.0000   0.0000   0.0000   0.0000
     0.0000   0.0000   0.0000   0.0000   0.0000   0.0000   0.0000   0.0000
     0.0000   0.0000   0.0000   0.0000   0.0000   0.0000   0.0000   0.0000
     0.0000

          k =-0.5000-0.5000-0.3500 ( 20000 PWs)   bands (ev):

   -80.5962 -47.5569 -47.5569 -47.5183 -14.1221  -5.8479  -4.0626  -4.0626
    -3.6459  -0.9524  -0.9524   0.6943   0.8804   1.7476   1.7476   1.9063
     2.5502   2.5502   2.6163   3.3681   3.4032   3.4032   3.6168   4.0866
     4.2187   4.5539   4.5539   4.7703   4.8935   5.0658   5.8102   5.9865
     5.9865

     occupation numbers 
     1.0000   1.0000   1.0000   1.0000   1.0000   1.0000   0.9848   0.9848
     0.0151   0.0000   0.0000   0.0000   0.0000   0.0000   0.0000   0.0000
     0.0000   0.0000   0.0000   0.0000   0.0000   0.0000   0.0000   0.0000
     0.0000   0.0000   0.0000   0.0000   0.0000   0.0000   0.0000   0.0000
     0.0000

          k =-0.5000-0.5000-0.1750 ( 19944 PWs)   bands (ev):

   -80.5962 -47.5569 -47.5569 -47.5183 -14.1221  -5.8469  -4.0628  -4.0628
    -3.6514  -0.9485  -0.9485   0.8011   0.8472   1.7170   1.7170   2.0928
     2.2932   2.5509   2.5509   3.2939   3.4230   3.4230   3.5261   3.6130
     4.6025   4.6402   4.6402   4.7359   5.3216   5.5513   5.8871   5.9441
     5.9441

     occupation numbers 
     1.0000   1.0000   1.0000   1.0000   1.0000   1.0000   0.9848   0.9848
     0.0174   0.0000   0.0000   0.0000   0.0000   0.0000   0.0000   0.0000
     0.0000   0.0000   0.0000   0.0000   0.0000   0.0000   0.0000   0.0000
     0.0000   0.0000   0.0000   0.0000   0.0000   0.0000   0.0000   0.0000
     0.0000

          k =-0.5000-0.2500 0.0000 ( 20020 PWs)   bands (ev):

   -80.5962 -47.5569 -47.5569 -47.5183 -14.1222  -5.8496  -4.0650  -4.0493
    -3.6738  -1.0071  -0.7589   0.7972   1.0396   1.3007   1.6170   2.1773
     2.2176   2.4889   2.8977   3.0020   3.0946   3.5148   3.5826   4.2023
     4.2561   4.6050   4.7856   4.9941   5.4139   5.5436   5.6648   5.7870
     5.9336

     occupation numbers 
     1.0000   1.0000   1.0000   1.0000   1.0000   1.0000   0.9857   0.9786
     0.0302   0.0000   0.0000   0.0000   0.0000   0.0000   0.0000   0.0000
     0.0000   0.0000   0.0000   0.0000   0.0000   0.0000   0.0000   0.0000
     0.0000   0.0000   0.0000   0.0000   0.0000   0.0000   0.0000   0.0000
     0.0000

          k =-0.5000-0.2500 0.1750 ( 19978 PWs)   bands (ev):

   -80.5962 -47.5569 -47.5569 -47.5183 -14.1222  -5.8505  -4.0648  -4.0491
    -3.6682  -1.0108  -0.7622   0.6316   1.0890   1.4726   1.5202   2.2508
     2.3043   2.4433   2.7883   3.1342   3.1801   3.6064   3.7497   4.0958
     4.1911   4.5486   4.5513   5.0572   5.2687   5.3078   5.4831   5.5283
     5.8162

     occupation numbers 
     1.0000   1.0000   1.0000   1.0000   1.0000   1.0000   0.9856   0.9785
     0.0264   0.0000   0.0000   0.0000   0.0000   0.0000   0.0000   0.0000
     0.0000   0.0000   0.0000   0.0000   0.0000   0.0000   0.0000   0.0000
     0.0000   0.0000   0.0000   0.0000   0.0000   0.0000   0.0000   0.0000
     0.0000

          k =-0.5000-0.2500-0.3500 ( 19992 PWs)   bands (ev):

   -80.5962 -47.5569 -47.5569 -47.5183 -14.1222  -5.8515  -4.0646  -4.0490
    -3.6625  -1.0146  -0.7656   0.5190   1.1683   1.3983   1.6038   2.1749
     2.3526   2.6648   2.7409   3.1940   3.2140   3.6884   3.9303   4.0066
     4.1031   4.3750   4.7004   4.7432   4.9101   5.2622   5.3090   5.7200
     5.9099

     occupation numbers 
     1.0000   1.0000   1.0000   1.0000   1.0000   1.0000   0.9855   0.9784
     0.0230   0.0000   0.0000   0.0000   0.0000   0.0000   0.0000   0.0000
     0.0000   0.0000   0.0000   0.0000   0.0000   0.0000   0.0000   0.0000
     0.0000   0.0000   0.0000   0.0000   0.0000   0.0000   0.0000   0.0000
     0.0000

          k =-0.5000-0.2500-0.1750 ( 19978 PWs)   bands (ev):

   -80.5962 -47.5569 -47.5569 -47.5183 -14.1222  -5.8505  -4.0648  -4.0491
    -3.6682  -1.0108  -0.7622   0.6316   1.0890   1.4726   1.5202   2.2508
     2.3043   2.4433   2.7883   3.1342   3.1801   3.6064   3.7497   4.0958
     4.1911   4.5486   4.5513   5.0572   5.2687   5.3078   5.4831   5.5283
     5.8162

     occupation numbers 
     1.0000   1.0000   1.0000   1.0000   1.0000   1.0000   0.9856   0.9785
     0.0264   0.0000   0.0000   0.0000   0.0000   0.0000   0.0000   0.0000
     0.0000   0.0000   0.0000   0.0000   0.0000   0.0000   0.0000   0.0000
     0.0000   0.0000   0.0000   0.0000   0.0000   0.0000   0.0000   0.0000
     0.0000

          k =-0.2500 0.0000 0.0000 ( 19968 PWs)   bands (ev):

   -80.5962 -47.5569 -47.5569 -47.5183 -14.1223  -5.8569  -4.0526  -4.0363
    -3.7097  -0.8602  -0.5333   0.5090   0.5153   1.4989   1.6724   2.1526
     2.4159   2.4955   2.9478   3.0741   3.1421   3.7524   4.0805   4.0960
     4.4383   4.4420   4.7413   4.9386   5.0446   5.1505   5.2712   5.5307
     5.5962

     occupation numbers 
     1.0000   1.0000   1.0000   1.0000   1.0000   1.0000   0.9803   0.9706
     0.0662   0.0000   0.0000   0.0000   0.0000   0.0000   0.0000   0.0000
     0.0000   0.0000   0.0000   0.0000   0.0000   0.0000   0.0000   0.0000
     0.0000   0.0000   0.0000   0.0000   0.0000   0.0000   0.0000   0.0000
     0.0000

          k =-0.2500 0.0000 0.1750 ( 19980 PWs)   bands (ev):

   -80.5962 -47.5569 -47.5569 -47.5183 -14.1223  -5.8580  -4.0525  -4.0362
    -3.7036  -0.8631  -0.5361   0.2786   0.6690   1.5572   1.8124   2.0448
     2.4419   2.7058   2.8857   2.9925   3.2442   3.7493   3.9269   4.1617
     4.3212   4.4129   4.5902   4.8204   4.8554   5.1271   5.3246   5.3881
     5.6771

     occupation numbers 
     1.0000   1.0000   1.0000   1.0000   1.0000   1.0000   0.9802   0.9706
     0.0584   0.0000   0.0000   0.0000   0.0000   0.0000   0.0000   0.0000
     0.0000   0.0000   0.0000   0.0000   0.0000   0.0000   0.0000   0.0000
     0.0000   0.0000   0.0000   0.0000   0.0000   0.0000   0.0000   0.0000
     0.0000

          k =-0.2500 0.0000-0.3500 ( 19962 PWs)   bands (ev):

   -80.5962 -47.5569 -47.5569 -47.5183 -14.1223  -5.8590  -4.0523  -4.0361
    -3.6974  -0.8661  -0.5389   0.1684   0.7174   1.6351   1.7288   2.2593
     2.4694   2.6960   3.0243   3.0403   3.2851   3.3997   3.8330   4.1415
     4.2253   4.3223   4.6229   4.6706   4.9883   5.1433   5.4610   5.5941
     5.8244

     occupation numbers 
     1.0000   1.0000   1.0000   1.0000   1.0000   1.0000   0.9801   0.9705
     0.0512   0.0000   0.0000   0.0000   0.0000   0.0000   0.0000   0.0000
     0.0000   0.0000   0.0000   0.0000   0.0000   0.0000   0.0000   0.0000
     0.0000   0.0000   0.0000   0.0000   0.0000   0.0000   0.0000   0.0000
     0.0000

          k =-0.2500 0.0000-0.1750 ( 19980 PWs)   bands (ev):

   -80.5962 -47.5569 -47.5569 -47.5183 -14.1223  -5.8580  -4.0525  -4.0362
    -3.7036  -0.8631  -0.5361   0.2786   0.6690   1.5572   1.8124   2.0448
     2.4419   2.7058   2.8857   2.9925   3.2442   3.7493   3.9269   4.1617
     4.3212   4.4129   4.5902   4.8204   4.8554   5.1271   5.3246   5.3881
     5.6771

     occupation numbers 
     1.0000   1.0000   1.0000   1.0000   1.0000   1.0000   0.9802   0.9706
     0.0584   0.0000   0.0000   0.0000   0.0000   0.0000   0.0000   0.0000
     0.0000   0.0000   0.0000   0.0000   0.0000   0.0000   0.0000   0.0000
     0.0000   0.0000   0.0000   0.0000   0.0000   0.0000   0.0000   0.0000
     0.0000

          k =-0.2500 0.2500 0.0000 ( 19983 PWs)   bands (ev):

   -80.5962 -47.5569 -47.5569 -47.5183 -14.1222  -5.8533  -4.0516  -4.0503
    -3.6918  -0.8432  -0.7790   0.6253   0.7941   1.6071   1.7513   2.0114
     2.1743   2.3811   2.7138   3.0041   3.4770   3.6623   3.9753   4.1226
     4.3214   4.4447   4.7916   5.0103   5.1025   5.3284   5.3941   5.6127
     5.8637

     occupation numbers 
     1.0000   1.0000   1.0000   1.0000   1.0000   1.0000   0.9798   0.9791
     0.0455   0.0000   0.0000   0.0000   0.0000   0.0000   0.0000   0.0000
     0.0000   0.0000   0.0000   0.0000   0.0000   0.0000   0.0000   0.0000
     0.0000   0.0000   0.0000   0.0000   0.0000   0.0000   0.0000   0.0000
     0.0000

          k =-0.2500 0.2500 0.1750 ( 19985 PWs)   bands (ev):

   -80.5962 -47.5569 -47.5569 -47.5183 -14.1222  -5.8543  -4.0515  -4.0501
    -3.6859  -0.8460  -0.7824   0.4222   0.9611   1.7082   1.8123   1.8567
     2.2611   2.2768   3.0094   3.1399   3.2805   3.6997   3.9775   4.0721
     4.2440   4.4932   4.7374   4.7551   4.9294   5.2327   5.4448   5.5654
     5.8896

     occupation numbers 
     1.0000   1.0000   1.0000   1.0000   1.0000   1.0000   0.9797   0.9790
     0.0399   0.0000   0.0000   0.0000   0.0000   0.0000   0.0000   0.0000
     0.0000   0.0000   0.0000   0.0000   0.0000   0.0000   0.0000   0.0000
     0.0000   0.0000   0.0000   0.0000   0.0000   0.0000   0.0000   0.0000
     0.0000

          k =-0.2500 0.2500-0.3500 ( 19980 PWs)   bands (ev):

   -80.5962 -47.5569 -47.5569 -47.5183 -14.1222  -5.8553  -4.0513  -4.0500
    -3.6800  -0.8489  -0.7857   0.3082   1.0578   1.6852   1.8033   1.9172
     2.1104   2.5529   3.0613   3.2894   3.3063   3.7100   3.7297   3.9718
     4.2786   4.3717   4.6108   4.7553   5.0378   5.1985   5.4488   5.6109
     5.7747

     occupation numbers 
     1.0000   1.0000   1.0000   1.0000   1.0000   1.0000   0.9796   0.9790
     0.0349   0.0000   0.0000   0.0000   0.0000   0.0000   0.0000   0.0000
     0.0000   0.0000   0.0000   0.0000   0.0000   0.0000   0.0000   0.0000
     0.0000   0.0000   0.0000   0.0000   0.0000   0.0000   0.0000   0.0000
     0.0000

          k =-0.2500 0.2500-0.1750 ( 19985 PWs)   bands (ev):

   -80.5962 -47.5569 -47.5569 -47.5183 -14.1222  -5.8543  -4.0515  -4.0501
    -3.6859  -0.8460  -0.7824   0.4222   0.9611   1.7082   1.8123   1.8567
     2.2611   2.2768   3.0094   3.1399   3.2805   3.6997   3.9775   4.0721
     4.2440   4.4932   4.7374   4.7551   4.9294   5.2327   5.4448   5.5654
     5.8896

     occupation numbers 
     1.0000   1.0000   1.0000   1.0000   1.0000   1.0000   0.9797   0.9790
     0.0399   0.0000   0.0000   0.0000   0.0000   0.0000   0.0000   0.0000
     0.0000   0.0000   0.0000   0.0000   0.0000   0.0000   0.0000   0.0000
     0.0000   0.0000   0.0000   0.0000   0.0000   0.0000   0.0000   0.0000
     0.0000

          k =-0.2500-0.5000 0.0000 ( 20020 PWs)   bands (ev):

   -80.5962 -47.5569 -47.5569 -47.5183 -14.1222  -5.8496  -4.0650  -4.0493
    -3.6738  -1.0071  -0.7589   0.7972   1.0396   1.3007   1.6170   2.1773
     2.2176   2.4889   2.8977   3.0020   3.0946   3.5148   3.5826   4.2023
     4.2561   4.6050   4.7856   4.9941   5.4139   5.5436   5.6648   5.7870
     5.9336

     occupation numbers 
     1.0000   1.0000   1.0000   1.0000   1.0000   1.0000   0.9857   0.9786
     0.0302   0.0000   0.0000   0.0000   0.0000   0.0000   0.0000   0.0000
     0.0000   0.0000   0.0000   0.0000   0.0000   0.0000   0.0000   0.0000
     0.0000   0.0000   0.0000   0.0000   0.0000   0.0000   0.0000   0.0000
     0.0000

          k =-0.2500-0.5000 0.1750 ( 19978 PWs)   bands (ev):

   -80.5962 -47.5569 -47.5569 -47.5183 -14.1222  -5.8505  -4.0648  -4.0491
    -3.6682  -1.0108  -0.7622   0.6316   1.0890   1.4726   1.5202   2.2508
     2.3043   2.4433   2.7883   3.1342   3.1801   3.6064   3.7497   4.0958
     4.1911   4.5486   4.5513   5.0572   5.2687   5.3078   5.4831   5.5283
     5.8162

     occupation numbers 
     1.0000   1.0000   1.0000   1.0000   1.0000   1.0000   0.9856   0.9785
     0.0264   0.0000   0.0000   0.0000   0.0000   0.0000   0.0000   0.0000
     0.0000   0.0000   0.0000   0.0000   0.0000   0.0000   0.0000   0.0000
     0.0000   0.0000   0.0000   0.0000   0.0000   0.0000   0.0000   0.0000
     0.0000

          k =-0.2500-0.5000-0.3500 ( 19992 PWs)   bands (ev):

   -80.5962 -47.5569 -47.5569 -47.5183 -14.1222  -5.8515  -4.0646  -4.0490
    -3.6625  -1.0146  -0.7656   0.5190   1.1683   1.3983   1.6038   2.1749
     2.3526   2.6648   2.7409   3.1940   3.2140   3.6884   3.9303   4.0066
     4.1031   4.3750   4.7004   4.7432   4.9101   5.2622   5.3090   5.7200
     5.9099

     occupation numbers 
     1.0000   1.0000   1.0000   1.0000   1.0000   1.0000   0.9855   0.9784
     0.0230   0.0000   0.0000   0.0000   0.0000   0.0000   0.0000   0.0000
     0.0000   0.0000   0.0000   0.0000   0.0000   0.0000   0.0000   0.0000
     0.0000   0.0000   0.0000   0.0000   0.0000   0.0000   0.0000   0.0000
     0.0000

          k =-0.2500-0.5000-0.1750 ( 19978 PWs)   bands (ev):

   -80.5962 -47.5569 -47.5569 -47.5183 -14.1222  -5.8505  -4.0648  -4.0491
    -3.6682  -1.0108  -0.7622   0.6316   1.0890   1.4726   1.5202   2.2508
     2.3043   2.4433   2.7883   3.1342   3.1801   3.6064   3.7497   4.0958
     4.1911   4.5486   4.5513   5.0572   5.2687   5.3078   5.4831   5.5283
     5.8162

     occupation numbers 
     1.0000   1.0000   1.0000   1.0000   1.0000   1.0000   0.9856   0.9785
     0.0264   0.0000   0.0000   0.0000   0.0000   0.0000   0.0000   0.0000
     0.0000   0.0000   0.0000   0.0000   0.0000   0.0000   0.0000   0.0000
     0.0000   0.0000   0.0000   0.0000   0.0000   0.0000   0.0000   0.0000
     0.0000

          k =-0.2500-0.2500 0.0000 ( 19983 PWs)   bands (ev):

   -80.5962 -47.5569 -47.5569 -47.5183 -14.1222  -5.8533  -4.0516  -4.0503
    -3.6918  -0.8432  -0.7790   0.6253   0.7941   1.6071   1.7513   2.0114
     2.1743   2.3811   2.7138   3.0041   3.4770   3.6623   3.9753   4.1226
     4.3214   4.4447   4.7916   5.0103   5.1025   5.3284   5.3941   5.6127
     5.8637

     occupation numbers 
     1.0000   1.0000   1.0000   1.0000   1.0000   1.0000   0.9798   0.9791
     0.0455   0.0000   0.0000   0.0000   0.0000   0.0000   0.0000   0.0000
     0.0000   0.0000   0.0000   0.0000   0.0000   0.0000   0.0000   0.0000
     0.0000   0.0000   0.0000   0.0000   0.0000   0.0000   0.0000   0.0000
     0.0000

          k =-0.2500-0.2500 0.1750 ( 19985 PWs)   bands (ev):

   -80.5962 -47.5569 -47.5569 -47.5183 -14.1222  -5.8543  -4.0515  -4.0501
    -3.6859  -0.8460  -0.7824   0.4222   0.9611   1.7082   1.8123   1.8567
     2.2611   2.2768   3.0094   3.1399   3.2805   3.6997   3.9775   4.0721
     4.2440   4.4932   4.7374   4.7551   4.9294   5.2327   5.4448   5.5654
     5.8896

     occupation numbers 
     1.0000   1.0000   1.0000   1.0000   1.0000   1.0000   0.9797   0.9790
     0.0399   0.0000   0.0000   0.0000   0.0000   0.0000   0.0000   0.0000
     0.0000   0.0000   0.0000   0.0000   0.0000   0.0000   0.0000   0.0000
     0.0000   0.0000   0.0000   0.0000   0.0000   0.0000   0.0000   0.0000
     0.0000

          k =-0.2500-0.2500-0.3500 ( 19980 PWs)   bands (ev):

   -80.5962 -47.5569 -47.5569 -47.5183 -14.1222  -5.8553  -4.0513  -4.0500
    -3.6800  -0.8489  -0.7857   0.3082   1.0578   1.6852   1.8033   1.9172
     2.1104   2.5529   3.0613   3.2894   3.3063   3.7100   3.7297   3.9718
     4.2786   4.3717   4.6108   4.7553   5.0378   5.1985   5.4488   5.6109
     5.7747

     occupation numbers 
     1.0000   1.0000   1.0000   1.0000   1.0000   1.0000   0.9796   0.9790
     0.0349   0.0000   0.0000   0.0000   0.0000   0.0000   0.0000   0.0000
     0.0000   0.0000   0.0000   0.0000   0.0000   0.0000   0.0000   0.0000
     0.0000   0.0000   0.0000   0.0000   0.0000   0.0000   0.0000   0.0000
     0.0000

          k =-0.2500-0.2500-0.1750 ( 19985 PWs)   bands (ev):

   -80.5962 -47.5569 -47.5569 -47.5183 -14.1222  -5.8543  -4.0515  -4.0501
    -3.6859  -0.8460  -0.7824   0.4222   0.9611   1.7082   1.8123   1.8567
     2.2611   2.2768   3.0094   3.1399   3.2805   3.6997   3.9775   4.0721
     4.2440   4.4932   4.7374   4.7551   4.9294   5.2327   5.4448   5.5654
     5.8896

     occupation numbers 
     1.0000   1.0000   1.0000   1.0000   1.0000   1.0000   0.9797   0.9790
     0.0399   0.0000   0.0000   0.0000   0.0000   0.0000   0.0000   0.0000
     0.0000   0.0000   0.0000   0.0000   0.0000   0.0000   0.0000   0.0000
     0.0000   0.0000   0.0000   0.0000   0.0000   0.0000   0.0000   0.0000
     0.0000

     the Fermi energy is    -3.8545 ev

     Writing output data file /wrk/kfg/julia_data/MgS/dimer.in_vnscf_coords_7/qe.nscf.save/
 
     init_run     :      0.80s CPU      0.91s WALL (       1 calls)
     electrons    :    118.18s CPU    125.15s WALL (       1 calls)

     Called by init_run:
     wfcinit      :      0.00s CPU      0.00s WALL (       1 calls)
     wfcinit:atom :      0.04s CPU      0.05s WALL (      64 calls)
     wfcinit:wfcr :      3.54s CPU      3.80s WALL (      64 calls)
     potinit      :      0.06s CPU      0.07s WALL (       1 calls)
     hinit0       :      0.48s CPU      0.52s WALL (       1 calls)

     Called by electrons:
     c_bands      :    118.18s CPU    125.15s WALL (       1 calls)
     v_of_rho     :      0.05s CPU      0.06s WALL (       1 calls)
     v_h          :      0.00s CPU      0.00s WALL (       1 calls)
     v_xc         :      0.05s CPU      0.06s WALL (       1 calls)
     newd         :      0.19s CPU      0.24s WALL (       1 calls)

     Called by c_bands:
     init_us_2    :      0.10s CPU      0.11s WALL (      64 calls)
     cegterg      :    113.69s CPU    120.36s WALL (     155 calls)

     Called by sum_band:

     Called by *egterg:
     h_psi        :     65.64s CPU     71.78s WALL (    2852 calls)
     s_psi        :      2.57s CPU      2.62s WALL (    2852 calls)
     g_psi        :      1.18s CPU      1.19s WALL (    2633 calls)
     cdiaghg      :     15.78s CPU     16.02s WALL (    2697 calls)
     cegterg:over :     12.30s CPU     12.42s WALL (    2633 calls)
     cegterg:upda :     10.07s CPU     10.22s WALL (    2633 calls)
     cegterg:last :      7.20s CPU      7.23s WALL (     508 calls)
     cdiaghg:chol :      0.80s CPU      0.81s WALL (    2697 calls)
     cdiaghg:inve :      0.19s CPU      0.20s WALL (    2697 calls)
     cdiaghg:para :      1.96s CPU      2.09s WALL (    5394 calls)

     Called by h_psi:
     h_psi:calbec :      3.00s CPU      3.11s WALL (    2852 calls)
     vloc_psi     :     59.71s CPU     65.59s WALL (    2852 calls)
     add_vuspsi   :      2.55s CPU      2.57s WALL (    2852 calls)

     General routines
     calbec       :      2.98s CPU      3.10s WALL (    2852 calls)
     fft          :      0.03s CPU      0.04s WALL (      13 calls)
     ffts         :      0.00s CPU      0.00s WALL (       1 calls)
     fftw         :     53.99s CPU     59.41s WALL (   94328 calls)
     interpolate  :      0.00s CPU      0.00s WALL (       1 calls)
 
     Parallel routines
     fft_scatt_xy :      5.79s CPU      6.46s WALL (   94342 calls)
     fft_scatt_yz :     19.49s CPU     21.52s WALL (   94342 calls)
 
     PWSCF        :   1m59.55s CPU   2m 8.22s WALL

 
   This run was terminated on:  21:41:58  16Apr2020            

=------------------------------------------------------------------------------=
   JOB DONE.
=------------------------------------------------------------------------------=
