
     Program PWSCF v.6.5 starts on 16Apr2020 at 20: 0:11 

     This program is part of the open-source Quantum ESPRESSO suite
     for quantum simulation of materials; please cite
         "P. Giannozzi et al., J. Phys.:Condens. Matter 21 395502 (2009);
         "P. Giannozzi et al., J. Phys.:Condens. Matter 29 465901 (2017);
          URL http://www.quantum-espresso.org", 
     in publications or presentations arising from this work. More details at
     http://www.quantum-espresso.org/quote

     Parallel version (MPI), running on     8 processors

     MPI processes distributed on     1 nodes
     R & G space division:  proc/nbgrp/npool/nimage =       8
     Reading input from /wrk/kfg/julia_data/MgS/znse.in_vnscf_shear_1/qe.nscf.in
Warning: card &IONS ignored
Warning: card   ION_DYNAMICS='BFGS', ignored
Warning: card / ignored
Warning: card &CELL ignored
Warning: card  CELL_DYNAMICS = 'BFGS' ignored
Warning: card  CELL_DOFREE = 'ALL' ignored
Warning: card  CELL_FACTOR = 1.0 ignored
Warning: card / ignored
     Message from routine read_cards :
     DEPRECATED: no units specified in CELL_PARAMETERS card

     Current dimensions of program PWSCF are:
     Max number of different atomic species (ntypx) = 10
     Max number of k-points (npk) =  40000
     Max angular momentum in pseudopotentials (lmaxx) =  3
     Message from routine volume:
     axis vectors are left-handed

     Atomic positions and unit cell read from directory:
     /wrk/kfg/julia_data/MgS/znse.in_vnscf_shear_1/qe.nscf.save/                                                                                                                                                                                                     
     Message from routine volume:
     axis vectors are left-handed
 
               file mg.pbesol.UPF: wavefunction(s)  3P renormalized

     Subspace diagonalization in iterative solution of the eigenvalue problem:
     one sub-group per band group will be used
     scalapack distributed-memory algorithm (size of sub-group:  2*  2 procs)

 
     Parallelization info
     --------------------
     sticks:   dense  smooth     PW     G-vecs:    dense   smooth      PW
     Min         122      88     28                 2531     1539     278
     Max         123      89     29                 2532     1541     280
     Sum         983     711    227                20255    12325    2233
 


     bravais-lattice index     =            0
     lattice parameter (alat)  =       7.6268  a.u.
     unit-cell volume          =     304.4405 (a.u.)^3
     number of atoms/cell      =            2
     number of atomic types    =            2
     number of electrons       =        16.00
     number of Kohn-Sham states=           33
     kinetic-energy cutoff     =      45.0000  Ry
     charge density cutoff     =     250.0000  Ry
     Exchange-correlation= SLA  PW   PSX  PSC
                           (   1   4  10   8   0   0   0)
     A smooth kinetic-energy cutoff is imposed at      44.5000 Ry
     height of the smooth step-function =             800.0000 Ry
     width of the smooth step-function  =               1.0000 Ry


     celldm(1)=   7.626788  celldm(2)=   0.000000  celldm(3)=   0.000000
     celldm(4)=   0.000000  celldm(5)=   0.000000  celldm(6)=   0.000000

     crystal axes: (cart. coord. in units of alat)
               a(1) = (   0.707107   0.707107   0.000000 )  
               a(2) = (   0.700106   0.007001   0.700106 )  
               a(3) = (   0.007001   0.700106   0.700106 )  

     reciprocal axes: (cart. coord. in units 2 pi/alat)
               b(1) = (  0.707107  0.707107 -0.714178 )  
               b(2) = (  0.721392 -0.721392  0.714178 )  
               b(3) = ( -0.721392  0.721392  0.714178 )  


     PseudoPot. # 1 for Mg read from file:
     /home/kfg/psuedo/gbrv_1.5/mg.pbesol.UPF
     MD5 check sum: cbba17e5274afd115179030b10be074e
     Pseudo is Ultrasoft, Zval = 10.0
     Generated by new atomic code, or converted to UPF format
     Using radial grid of  821 points,  7 beta functions with: 
                l(1) =   0
                l(2) =   0
                l(3) =   0
                l(4) =   1
                l(5) =   1
                l(6) =   2
                l(7) =   2
     Q(r) pseudized with  8 coefficients,  rinner =    1.200   1.200   1.200
                                                       1.200   1.200

     PseudoPot. # 2 for S  read from file:
     /home/kfg/psuedo/gbrv_1.5/s.pbesol.UPF
     MD5 check sum: 0ccfa86ec6eb59065d10aaae963ef2a7
     Pseudo is Ultrasoft + core correction, Zval =  6.0
     Generated by new atomic code, or converted to UPF format
     Using radial grid of  907 points,  6 beta functions with: 
                l(1) =   0
                l(2) =   0
                l(3) =   1
                l(4) =   1
                l(5) =   2
                l(6) =   2
     Q(r) pseudized with  8 coefficients,  rinner =    1.300   1.300   1.300
                                                       1.300   1.300

     atomic species   valence    mass     pseudopotential
        Mg            10.00    24.31000     Mg( 1.00)
        S              6.00    32.06000     S ( 1.00)

     No symmetry found


                                    s                        frac. trans.

      isym =  1     identity                                     

 cryst.   s( 1) = (     1          0          0      )
                  (     0          1          0      )
                  (     0          0          1      )

 cart.    s( 1) = (  1.0000000 -0.0000000 -0.0000000 )
                  (  0.0000000  1.0000000 -0.0000000 )
                  (  0.0000000  0.0000000  1.0000000 )


   Cartesian axes

     site n.     atom                  positions (alat units)
         1           Mg  tau(   1) = (   0.0000000   0.0000000   0.0000000  )
         2           S   tau(   2) = (   0.3535534   0.3535534   0.3500529  )

   Crystallographic axes

     site n.     atom                  positions (cryst. coord.)
         1           Mg  tau(   1) = (  0.0000000  0.0000000  0.0000000  )
         2           S   tau(   2) = (  0.2500000  0.2500000  0.2500000  )

     number of k points=  1000  Gaussian smearing, width (Ry)=  0.0100
                       cart. coord. in units 2pi/alat
        k(    1) = (   0.0000000   0.0000000   0.0000000), wk =   0.0020000
        k(    2) = (  -0.0721392   0.0721392   0.0714178), wk =   0.0020000
        k(    3) = (  -0.1442784   0.1442784   0.1428356), wk =   0.0020000
        k(    4) = (  -0.2164175   0.2164175   0.2142534), wk =   0.0020000
        k(    5) = (  -0.2885567   0.2885567   0.2856711), wk =   0.0020000
        k(    6) = (   0.3606959  -0.3606959  -0.3570889), wk =   0.0020000
        k(    7) = (   0.2885567  -0.2885567  -0.2856711), wk =   0.0020000
        k(    8) = (   0.2164175  -0.2164175  -0.2142534), wk =   0.0020000
        k(    9) = (   0.1442784  -0.1442784  -0.1428356), wk =   0.0020000
        k(   10) = (   0.0721392  -0.0721392  -0.0714178), wk =   0.0020000
        k(   11) = (   0.0721392  -0.0721392   0.0714178), wk =   0.0020000
        k(   12) = (   0.0000000   0.0000000   0.1428356), wk =   0.0020000
        k(   13) = (  -0.0721392   0.0721392   0.2142534), wk =   0.0020000
        k(   14) = (  -0.1442784   0.1442784   0.2856711), wk =   0.0020000
        k(   15) = (  -0.2164175   0.2164175   0.3570889), wk =   0.0020000
        k(   16) = (   0.4328351  -0.4328351  -0.2856711), wk =   0.0020000
        k(   17) = (   0.3606959  -0.3606959  -0.2142534), wk =   0.0020000
        k(   18) = (   0.2885567  -0.2885567  -0.1428356), wk =   0.0020000
        k(   19) = (   0.2164175  -0.2164175  -0.0714178), wk =   0.0020000
        k(   20) = (   0.1442784  -0.1442784   0.0000000), wk =   0.0020000
        k(   21) = (   0.1442784  -0.1442784   0.1428356), wk =   0.0020000
        k(   22) = (   0.0721392  -0.0721392   0.2142534), wk =   0.0020000
        k(   23) = (   0.0000000   0.0000000   0.2856711), wk =   0.0020000
        k(   24) = (  -0.0721392   0.0721392   0.3570889), wk =   0.0020000
        k(   25) = (  -0.1442784   0.1442784   0.4285067), wk =   0.0020000
        k(   26) = (   0.5049742  -0.5049742  -0.2142534), wk =   0.0020000
        k(   27) = (   0.4328351  -0.4328351  -0.1428356), wk =   0.0020000
        k(   28) = (   0.3606959  -0.3606959  -0.0714178), wk =   0.0020000
        k(   29) = (   0.2885567  -0.2885567   0.0000000), wk =   0.0020000
        k(   30) = (   0.2164175  -0.2164175   0.0714178), wk =   0.0020000
        k(   31) = (   0.2164175  -0.2164175   0.2142534), wk =   0.0020000
        k(   32) = (   0.1442784  -0.1442784   0.2856711), wk =   0.0020000
        k(   33) = (   0.0721392  -0.0721392   0.3570889), wk =   0.0020000
        k(   34) = (   0.0000000   0.0000000   0.4285067), wk =   0.0020000
        k(   35) = (  -0.0721392   0.0721392   0.4999245), wk =   0.0020000
        k(   36) = (   0.5771134  -0.5771134  -0.1428356), wk =   0.0020000
        k(   37) = (   0.5049742  -0.5049742  -0.0714178), wk =   0.0020000
        k(   38) = (   0.4328351  -0.4328351  -0.0000000), wk =   0.0020000
        k(   39) = (   0.3606959  -0.3606959   0.0714178), wk =   0.0020000
        k(   40) = (   0.2885567  -0.2885567   0.1428356), wk =   0.0020000
        k(   41) = (   0.2885567  -0.2885567   0.2856711), wk =   0.0020000
        k(   42) = (   0.2164175  -0.2164175   0.3570889), wk =   0.0020000
        k(   43) = (   0.1442784  -0.1442784   0.4285067), wk =   0.0020000
        k(   44) = (   0.0721392  -0.0721392   0.4999245), wk =   0.0020000
        k(   45) = (   0.0000000   0.0000000   0.5713423), wk =   0.0020000
        k(   46) = (   0.6492526  -0.6492526  -0.0714178), wk =   0.0020000
        k(   47) = (   0.5771134  -0.5771134   0.0000000), wk =   0.0020000
        k(   48) = (   0.5049742  -0.5049742   0.0714178), wk =   0.0020000
        k(   49) = (   0.4328351  -0.4328351   0.1428356), wk =   0.0020000
        k(   50) = (   0.3606959  -0.3606959   0.2142534), wk =   0.0020000
        k(   51) = (  -0.3606959   0.3606959  -0.3570889), wk =   0.0020000
        k(   52) = (  -0.4328351   0.4328351  -0.2856711), wk =   0.0020000
        k(   53) = (  -0.5049742   0.5049742  -0.2142534), wk =   0.0020000
        k(   54) = (  -0.5771134   0.5771134  -0.1428356), wk =   0.0020000
        k(   55) = (  -0.6492526   0.6492526  -0.0714178), wk =   0.0020000
        k(   56) = (   0.0000000   0.0000000  -0.7141778), wk =   0.0020000
        k(   57) = (  -0.0721392   0.0721392  -0.6427601), wk =   0.0020000
        k(   58) = (  -0.1442784   0.1442784  -0.5713423), wk =   0.0020000
        k(   59) = (  -0.2164175   0.2164175  -0.4999245), wk =   0.0020000
        k(   60) = (  -0.2885567   0.2885567  -0.4285067), wk =   0.0020000
        k(   61) = (  -0.2885567   0.2885567  -0.2856711), wk =   0.0020000
        k(   62) = (  -0.3606959   0.3606959  -0.2142534), wk =   0.0020000
        k(   63) = (  -0.4328351   0.4328351  -0.1428356), wk =   0.0020000
        k(   64) = (  -0.5049742   0.5049742  -0.0714178), wk =   0.0020000
        k(   65) = (  -0.5771134   0.5771134   0.0000000), wk =   0.0020000
        k(   66) = (   0.0721392  -0.0721392  -0.6427601), wk =   0.0020000
        k(   67) = (   0.0000000   0.0000000  -0.5713423), wk =   0.0020000
        k(   68) = (  -0.0721392   0.0721392  -0.4999245), wk =   0.0020000
        k(   69) = (  -0.1442784   0.1442784  -0.4285067), wk =   0.0020000
        k(   70) = (  -0.2164175   0.2164175  -0.3570889), wk =   0.0020000
        k(   71) = (  -0.2164175   0.2164175  -0.2142534), wk =   0.0020000
        k(   72) = (  -0.2885567   0.2885567  -0.1428356), wk =   0.0020000
        k(   73) = (  -0.3606959   0.3606959  -0.0714178), wk =   0.0020000
        k(   74) = (  -0.4328351   0.4328351  -0.0000000), wk =   0.0020000
        k(   75) = (  -0.5049742   0.5049742   0.0714178), wk =   0.0020000
        k(   76) = (   0.1442784  -0.1442784  -0.5713423), wk =   0.0020000
        k(   77) = (   0.0721392  -0.0721392  -0.4999245), wk =   0.0020000
        k(   78) = (   0.0000000   0.0000000  -0.4285067), wk =   0.0020000
        k(   79) = (  -0.0721392   0.0721392  -0.3570889), wk =   0.0020000
        k(   80) = (  -0.1442784   0.1442784  -0.2856711), wk =   0.0020000
        k(   81) = (  -0.1442784   0.1442784  -0.1428356), wk =   0.0020000
        k(   82) = (  -0.2164175   0.2164175  -0.0714178), wk =   0.0020000
        k(   83) = (  -0.2885567   0.2885567   0.0000000), wk =   0.0020000
        k(   84) = (  -0.3606959   0.3606959   0.0714178), wk =   0.0020000
        k(   85) = (  -0.4328351   0.4328351   0.1428356), wk =   0.0020000
        k(   86) = (   0.2164175  -0.2164175  -0.4999245), wk =   0.0020000
        k(   87) = (   0.1442784  -0.1442784  -0.4285067), wk =   0.0020000
        k(   88) = (   0.0721392  -0.0721392  -0.3570889), wk =   0.0020000
        k(   89) = (   0.0000000   0.0000000  -0.2856711), wk =   0.0020000
        k(   90) = (  -0.0721392   0.0721392  -0.2142534), wk =   0.0020000
        k(   91) = (  -0.0721392   0.0721392  -0.0714178), wk =   0.0020000
        k(   92) = (  -0.1442784   0.1442784   0.0000000), wk =   0.0020000
        k(   93) = (  -0.2164175   0.2164175   0.0714178), wk =   0.0020000
        k(   94) = (  -0.2885567   0.2885567   0.1428356), wk =   0.0020000
        k(   95) = (  -0.3606959   0.3606959   0.2142534), wk =   0.0020000
        k(   96) = (   0.2885567  -0.2885567  -0.4285067), wk =   0.0020000
        k(   97) = (   0.2164175  -0.2164175  -0.3570889), wk =   0.0020000
        k(   98) = (   0.1442784  -0.1442784  -0.2856711), wk =   0.0020000
        k(   99) = (   0.0721392  -0.0721392  -0.2142534), wk =   0.0020000
        k(  100) = (   0.0000000   0.0000000  -0.1428356), wk =   0.0020000
        k(  101) = (   0.0707107   0.0707107  -0.0714178), wk =   0.0020000
        k(  102) = (  -0.0014285   0.1428499  -0.0000000), wk =   0.0020000
        k(  103) = (  -0.0735677   0.2149890   0.0714178), wk =   0.0020000
        k(  104) = (  -0.1457069   0.2871282   0.1428356), wk =   0.0020000
        k(  105) = (  -0.2178460   0.3592674   0.2142534), wk =   0.0020000
        k(  106) = (   0.4314066  -0.2899852  -0.4285067), wk =   0.0020000
        k(  107) = (   0.3592674  -0.2178460  -0.3570889), wk =   0.0020000
        k(  108) = (   0.2871282  -0.1457069  -0.2856711), wk =   0.0020000
        k(  109) = (   0.2149890  -0.0735677  -0.2142534), wk =   0.0020000
        k(  110) = (   0.1428499  -0.0014285  -0.1428356), wk =   0.0020000
        k(  111) = (   0.1428499  -0.0014285  -0.0000000), wk =   0.0020000
        k(  112) = (   0.0707107   0.0707107   0.0714178), wk =   0.0020000
        k(  113) = (  -0.0014285   0.1428499   0.1428356), wk =   0.0020000
        k(  114) = (  -0.0735677   0.2149890   0.2142534), wk =   0.0020000
        k(  115) = (  -0.1457069   0.2871282   0.2856711), wk =   0.0020000
        k(  116) = (   0.5035457  -0.3621244  -0.3570889), wk =   0.0020000
        k(  117) = (   0.4314066  -0.2899852  -0.2856711), wk =   0.0020000
        k(  118) = (   0.3592674  -0.2178460  -0.2142534), wk =   0.0020000
        k(  119) = (   0.2871282  -0.1457069  -0.1428356), wk =   0.0020000
        k(  120) = (   0.2149890  -0.0735677  -0.0714178), wk =   0.0020000
        k(  121) = (   0.2149890  -0.0735677   0.0714178), wk =   0.0020000
        k(  122) = (   0.1428499  -0.0014285   0.1428356), wk =   0.0020000
        k(  123) = (   0.0707107   0.0707107   0.2142534), wk =   0.0020000
        k(  124) = (  -0.0014285   0.1428499   0.2856711), wk =   0.0020000
        k(  125) = (  -0.0735677   0.2149890   0.3570889), wk =   0.0020000
        k(  126) = (   0.5756849  -0.4342636  -0.2856711), wk =   0.0020000
        k(  127) = (   0.5035457  -0.3621244  -0.2142534), wk =   0.0020000
        k(  128) = (   0.4314066  -0.2899852  -0.1428356), wk =   0.0020000
        k(  129) = (   0.3592674  -0.2178460  -0.0714178), wk =   0.0020000
        k(  130) = (   0.2871282  -0.1457069  -0.0000000), wk =   0.0020000
        k(  131) = (   0.2871282  -0.1457069   0.1428356), wk =   0.0020000
        k(  132) = (   0.2149890  -0.0735677   0.2142534), wk =   0.0020000
        k(  133) = (   0.1428499  -0.0014285   0.2856711), wk =   0.0020000
        k(  134) = (   0.0707107   0.0707107   0.3570889), wk =   0.0020000
        k(  135) = (  -0.0014285   0.1428499   0.4285067), wk =   0.0020000
        k(  136) = (   0.6478241  -0.5064027  -0.2142534), wk =   0.0020000
        k(  137) = (   0.5756849  -0.4342636  -0.1428356), wk =   0.0020000
        k(  138) = (   0.5035457  -0.3621244  -0.0714178), wk =   0.0020000
        k(  139) = (   0.4314066  -0.2899852   0.0000000), wk =   0.0020000
        k(  140) = (   0.3592674  -0.2178460   0.0714178), wk =   0.0020000
        k(  141) = (   0.3592674  -0.2178460   0.2142534), wk =   0.0020000
        k(  142) = (   0.2871282  -0.1457069   0.2856711), wk =   0.0020000
        k(  143) = (   0.2149890  -0.0735677   0.3570889), wk =   0.0020000
        k(  144) = (   0.1428499  -0.0014285   0.4285067), wk =   0.0020000
        k(  145) = (   0.0707107   0.0707107   0.4999245), wk =   0.0020000
        k(  146) = (   0.7199633  -0.5785419  -0.1428356), wk =   0.0020000
        k(  147) = (   0.6478241  -0.5064027  -0.0714178), wk =   0.0020000
        k(  148) = (   0.5756849  -0.4342636  -0.0000000), wk =   0.0020000
        k(  149) = (   0.5035457  -0.3621244   0.0714178), wk =   0.0020000
        k(  150) = (   0.4314066  -0.2899852   0.1428356), wk =   0.0020000
        k(  151) = (  -0.2899852   0.4314066  -0.4285067), wk =   0.0020000
        k(  152) = (  -0.3621244   0.5035457  -0.3570889), wk =   0.0020000
        k(  153) = (  -0.4342636   0.5756849  -0.2856711), wk =   0.0020000
        k(  154) = (  -0.5064027   0.6478241  -0.2142534), wk =   0.0020000
        k(  155) = (  -0.5785419   0.7199633  -0.1428356), wk =   0.0020000
        k(  156) = (   0.0707107   0.0707107  -0.7855956), wk =   0.0020000
        k(  157) = (  -0.0014285   0.1428499  -0.7141778), wk =   0.0020000
        k(  158) = (  -0.0735677   0.2149890  -0.6427601), wk =   0.0020000
        k(  159) = (  -0.1457069   0.2871282  -0.5713423), wk =   0.0020000
        k(  160) = (  -0.2178460   0.3592674  -0.4999245), wk =   0.0020000
        k(  161) = (  -0.2178460   0.3592674  -0.3570889), wk =   0.0020000
        k(  162) = (  -0.2899852   0.4314066  -0.2856711), wk =   0.0020000
        k(  163) = (  -0.3621244   0.5035457  -0.2142534), wk =   0.0020000
        k(  164) = (  -0.4342636   0.5756849  -0.1428356), wk =   0.0020000
        k(  165) = (  -0.5064027   0.6478241  -0.0714178), wk =   0.0020000
        k(  166) = (   0.1428499  -0.0014285  -0.7141778), wk =   0.0020000
        k(  167) = (   0.0707107   0.0707107  -0.6427601), wk =   0.0020000
        k(  168) = (  -0.0014285   0.1428499  -0.5713423), wk =   0.0020000
        k(  169) = (  -0.0735677   0.2149890  -0.4999245), wk =   0.0020000
        k(  170) = (  -0.1457069   0.2871282  -0.4285067), wk =   0.0020000
        k(  171) = (  -0.1457069   0.2871282  -0.2856711), wk =   0.0020000
        k(  172) = (  -0.2178460   0.3592674  -0.2142534), wk =   0.0020000
        k(  173) = (  -0.2899852   0.4314066  -0.1428356), wk =   0.0020000
        k(  174) = (  -0.3621244   0.5035457  -0.0714178), wk =   0.0020000
        k(  175) = (  -0.4342636   0.5756849  -0.0000000), wk =   0.0020000
        k(  176) = (   0.2149890  -0.0735677  -0.6427601), wk =   0.0020000
        k(  177) = (   0.1428499  -0.0014285  -0.5713423), wk =   0.0020000
        k(  178) = (   0.0707107   0.0707107  -0.4999245), wk =   0.0020000
        k(  179) = (  -0.0014285   0.1428499  -0.4285067), wk =   0.0020000
        k(  180) = (  -0.0735677   0.2149890  -0.3570889), wk =   0.0020000
        k(  181) = (  -0.0735677   0.2149890  -0.2142534), wk =   0.0020000
        k(  182) = (  -0.1457069   0.2871282  -0.1428356), wk =   0.0020000
        k(  183) = (  -0.2178460   0.3592674  -0.0714178), wk =   0.0020000
        k(  184) = (  -0.2899852   0.4314066  -0.0000000), wk =   0.0020000
        k(  185) = (  -0.3621244   0.5035457   0.0714178), wk =   0.0020000
        k(  186) = (   0.2871282  -0.1457069  -0.5713423), wk =   0.0020000
        k(  187) = (   0.2149890  -0.0735677  -0.4999245), wk =   0.0020000
        k(  188) = (   0.1428499  -0.0014285  -0.4285067), wk =   0.0020000
        k(  189) = (   0.0707107   0.0707107  -0.3570889), wk =   0.0020000
        k(  190) = (  -0.0014285   0.1428499  -0.2856711), wk =   0.0020000
        k(  191) = (  -0.0014285   0.1428499  -0.1428356), wk =   0.0020000
        k(  192) = (  -0.0735677   0.2149890  -0.0714178), wk =   0.0020000
        k(  193) = (  -0.1457069   0.2871282  -0.0000000), wk =   0.0020000
        k(  194) = (  -0.2178460   0.3592674   0.0714178), wk =   0.0020000
        k(  195) = (  -0.2899852   0.4314066   0.1428356), wk =   0.0020000
        k(  196) = (   0.3592674  -0.2178460  -0.4999245), wk =   0.0020000
        k(  197) = (   0.2871282  -0.1457069  -0.4285067), wk =   0.0020000
        k(  198) = (   0.2149890  -0.0735677  -0.3570889), wk =   0.0020000
        k(  199) = (   0.1428499  -0.0014285  -0.2856711), wk =   0.0020000
        k(  200) = (   0.0707107   0.0707107  -0.2142534), wk =   0.0020000
        k(  201) = (   0.1414214   0.1414214  -0.1428356), wk =   0.0020000
        k(  202) = (   0.0692822   0.2135605  -0.0714178), wk =   0.0020000
        k(  203) = (  -0.0028570   0.2856997  -0.0000000), wk =   0.0020000
        k(  204) = (  -0.0749962   0.3578389   0.0714178), wk =   0.0020000
        k(  205) = (  -0.1471354   0.4299781   0.1428356), wk =   0.0020000
        k(  206) = (   0.5021172  -0.2192745  -0.4999245), wk =   0.0020000
        k(  207) = (   0.4299781  -0.1471354  -0.4285067), wk =   0.0020000
        k(  208) = (   0.3578389  -0.0749962  -0.3570889), wk =   0.0020000
        k(  209) = (   0.2856997  -0.0028570  -0.2856711), wk =   0.0020000
        k(  210) = (   0.2135605   0.0692822  -0.2142534), wk =   0.0020000
        k(  211) = (   0.2135605   0.0692822  -0.0714178), wk =   0.0020000
        k(  212) = (   0.1414214   0.1414214  -0.0000000), wk =   0.0020000
        k(  213) = (   0.0692822   0.2135605   0.0714178), wk =   0.0020000
        k(  214) = (  -0.0028570   0.2856997   0.1428356), wk =   0.0020000
        k(  215) = (  -0.0749962   0.3578389   0.2142534), wk =   0.0020000
        k(  216) = (   0.5742564  -0.2914137  -0.4285067), wk =   0.0020000
        k(  217) = (   0.5021172  -0.2192745  -0.3570889), wk =   0.0020000
        k(  218) = (   0.4299781  -0.1471354  -0.2856711), wk =   0.0020000
        k(  219) = (   0.3578389  -0.0749962  -0.2142534), wk =   0.0020000
        k(  220) = (   0.2856997  -0.0028570  -0.1428356), wk =   0.0020000
        k(  221) = (   0.2856997  -0.0028570  -0.0000000), wk =   0.0020000
        k(  222) = (   0.2135605   0.0692822   0.0714178), wk =   0.0020000
        k(  223) = (   0.1414214   0.1414214   0.1428356), wk =   0.0020000
        k(  224) = (   0.0692822   0.2135605   0.2142534), wk =   0.0020000
        k(  225) = (  -0.0028570   0.2856997   0.2856711), wk =   0.0020000
        k(  226) = (   0.6463956  -0.3635529  -0.3570889), wk =   0.0020000
        k(  227) = (   0.5742564  -0.2914137  -0.2856711), wk =   0.0020000
        k(  228) = (   0.5021172  -0.2192745  -0.2142534), wk =   0.0020000
        k(  229) = (   0.4299781  -0.1471354  -0.1428356), wk =   0.0020000
        k(  230) = (   0.3578389  -0.0749962  -0.0714178), wk =   0.0020000
        k(  231) = (   0.3578389  -0.0749962   0.0714178), wk =   0.0020000
        k(  232) = (   0.2856997  -0.0028570   0.1428356), wk =   0.0020000
        k(  233) = (   0.2135605   0.0692822   0.2142534), wk =   0.0020000
        k(  234) = (   0.1414214   0.1414214   0.2856711), wk =   0.0020000
        k(  235) = (   0.0692822   0.2135605   0.3570889), wk =   0.0020000
        k(  236) = (   0.7185348  -0.4356921  -0.2856711), wk =   0.0020000
        k(  237) = (   0.6463956  -0.3635529  -0.2142534), wk =   0.0020000
        k(  238) = (   0.5742564  -0.2914137  -0.1428356), wk =   0.0020000
        k(  239) = (   0.5021172  -0.2192745  -0.0714178), wk =   0.0020000
        k(  240) = (   0.4299781  -0.1471354  -0.0000000), wk =   0.0020000
        k(  241) = (   0.4299781  -0.1471354   0.1428356), wk =   0.0020000
        k(  242) = (   0.3578389  -0.0749962   0.2142534), wk =   0.0020000
        k(  243) = (   0.2856997  -0.0028570   0.2856711), wk =   0.0020000
        k(  244) = (   0.2135605   0.0692822   0.3570889), wk =   0.0020000
        k(  245) = (   0.1414214   0.1414214   0.4285067), wk =   0.0020000
        k(  246) = (   0.7906739  -0.5078312  -0.2142534), wk =   0.0020000
        k(  247) = (   0.7185348  -0.4356921  -0.1428356), wk =   0.0020000
        k(  248) = (   0.6463956  -0.3635529  -0.0714178), wk =   0.0020000
        k(  249) = (   0.5742564  -0.2914137  -0.0000000), wk =   0.0020000
        k(  250) = (   0.5021172  -0.2192745   0.0714178), wk =   0.0020000
        k(  251) = (  -0.2192745   0.5021172  -0.4999245), wk =   0.0020000
        k(  252) = (  -0.2914137   0.5742564  -0.4285067), wk =   0.0020000
        k(  253) = (  -0.3635529   0.6463956  -0.3570889), wk =   0.0020000
        k(  254) = (  -0.4356921   0.7185348  -0.2856711), wk =   0.0020000
        k(  255) = (  -0.5078312   0.7906739  -0.2142534), wk =   0.0020000
        k(  256) = (   0.1414214   0.1414214  -0.8570134), wk =   0.0020000
        k(  257) = (   0.0692822   0.2135605  -0.7855956), wk =   0.0020000
        k(  258) = (  -0.0028570   0.2856997  -0.7141778), wk =   0.0020000
        k(  259) = (  -0.0749962   0.3578389  -0.6427601), wk =   0.0020000
        k(  260) = (  -0.1471354   0.4299781  -0.5713423), wk =   0.0020000
        k(  261) = (  -0.1471354   0.4299781  -0.4285067), wk =   0.0020000
        k(  262) = (  -0.2192745   0.5021172  -0.3570889), wk =   0.0020000
        k(  263) = (  -0.2914137   0.5742564  -0.2856711), wk =   0.0020000
        k(  264) = (  -0.3635529   0.6463956  -0.2142534), wk =   0.0020000
        k(  265) = (  -0.4356921   0.7185348  -0.1428356), wk =   0.0020000
        k(  266) = (   0.2135605   0.0692822  -0.7855956), wk =   0.0020000
        k(  267) = (   0.1414214   0.1414214  -0.7141778), wk =   0.0020000
        k(  268) = (   0.0692822   0.2135605  -0.6427601), wk =   0.0020000
        k(  269) = (  -0.0028570   0.2856997  -0.5713423), wk =   0.0020000
        k(  270) = (  -0.0749962   0.3578389  -0.4999245), wk =   0.0020000
        k(  271) = (  -0.0749962   0.3578389  -0.3570889), wk =   0.0020000
        k(  272) = (  -0.1471354   0.4299781  -0.2856711), wk =   0.0020000
        k(  273) = (  -0.2192745   0.5021172  -0.2142534), wk =   0.0020000
        k(  274) = (  -0.2914137   0.5742564  -0.1428356), wk =   0.0020000
        k(  275) = (  -0.3635529   0.6463956  -0.0714178), wk =   0.0020000
        k(  276) = (   0.2856997  -0.0028570  -0.7141778), wk =   0.0020000
        k(  277) = (   0.2135605   0.0692822  -0.6427601), wk =   0.0020000
        k(  278) = (   0.1414214   0.1414214  -0.5713423), wk =   0.0020000
        k(  279) = (   0.0692822   0.2135605  -0.4999245), wk =   0.0020000
        k(  280) = (  -0.0028570   0.2856997  -0.4285067), wk =   0.0020000
        k(  281) = (  -0.0028570   0.2856997  -0.2856711), wk =   0.0020000
        k(  282) = (  -0.0749962   0.3578389  -0.2142534), wk =   0.0020000
        k(  283) = (  -0.1471354   0.4299781  -0.1428356), wk =   0.0020000
        k(  284) = (  -0.2192745   0.5021172  -0.0714178), wk =   0.0020000
        k(  285) = (  -0.2914137   0.5742564  -0.0000000), wk =   0.0020000
        k(  286) = (   0.3578389  -0.0749962  -0.6427601), wk =   0.0020000
        k(  287) = (   0.2856997  -0.0028570  -0.5713423), wk =   0.0020000
        k(  288) = (   0.2135605   0.0692822  -0.4999245), wk =   0.0020000
        k(  289) = (   0.1414214   0.1414214  -0.4285067), wk =   0.0020000
        k(  290) = (   0.0692822   0.2135605  -0.3570889), wk =   0.0020000
        k(  291) = (   0.0692822   0.2135605  -0.2142534), wk =   0.0020000
        k(  292) = (  -0.0028570   0.2856997  -0.1428356), wk =   0.0020000
        k(  293) = (  -0.0749962   0.3578389  -0.0714178), wk =   0.0020000
        k(  294) = (  -0.1471354   0.4299781  -0.0000000), wk =   0.0020000
        k(  295) = (  -0.2192745   0.5021172   0.0714178), wk =   0.0020000
        k(  296) = (   0.4299781  -0.1471354  -0.5713423), wk =   0.0020000
        k(  297) = (   0.3578389  -0.0749962  -0.4999245), wk =   0.0020000
        k(  298) = (   0.2856997  -0.0028570  -0.4285067), wk =   0.0020000
        k(  299) = (   0.2135605   0.0692822  -0.3570889), wk =   0.0020000
        k(  300) = (   0.1414214   0.1414214  -0.2856711), wk =   0.0020000
        k(  301) = (   0.2121320   0.2121320  -0.2142534), wk =   0.0020000
        k(  302) = (   0.1399929   0.2842712  -0.1428356), wk =   0.0020000
        k(  303) = (   0.0678537   0.3564104  -0.0714178), wk =   0.0020000
        k(  304) = (  -0.0042855   0.4285496  -0.0000000), wk =   0.0020000
        k(  305) = (  -0.0764247   0.5006887   0.0714178), wk =   0.0020000
        k(  306) = (   0.5728279  -0.1485638  -0.5713423), wk =   0.0020000
        k(  307) = (   0.5006887  -0.0764247  -0.4999245), wk =   0.0020000
        k(  308) = (   0.4285496  -0.0042855  -0.4285067), wk =   0.0020000
        k(  309) = (   0.3564104   0.0678537  -0.3570889), wk =   0.0020000
        k(  310) = (   0.2842712   0.1399929  -0.2856711), wk =   0.0020000
        k(  311) = (   0.2842712   0.1399929  -0.1428356), wk =   0.0020000
        k(  312) = (   0.2121320   0.2121320  -0.0714178), wk =   0.0020000
        k(  313) = (   0.1399929   0.2842712  -0.0000000), wk =   0.0020000
        k(  314) = (   0.0678537   0.3564104   0.0714178), wk =   0.0020000
        k(  315) = (  -0.0042855   0.4285496   0.1428356), wk =   0.0020000
        k(  316) = (   0.6449671  -0.2207030  -0.4999245), wk =   0.0020000
        k(  317) = (   0.5728279  -0.1485638  -0.4285067), wk =   0.0020000
        k(  318) = (   0.5006887  -0.0764247  -0.3570889), wk =   0.0020000
        k(  319) = (   0.4285496  -0.0042855  -0.2856711), wk =   0.0020000
        k(  320) = (   0.3564104   0.0678537  -0.2142534), wk =   0.0020000
        k(  321) = (   0.3564104   0.0678537  -0.0714178), wk =   0.0020000
        k(  322) = (   0.2842712   0.1399929  -0.0000000), wk =   0.0020000
        k(  323) = (   0.2121320   0.2121320   0.0714178), wk =   0.0020000
        k(  324) = (   0.1399929   0.2842712   0.1428356), wk =   0.0020000
        k(  325) = (   0.0678537   0.3564104   0.2142534), wk =   0.0020000
        k(  326) = (   0.7171063  -0.2928422  -0.4285067), wk =   0.0020000
        k(  327) = (   0.6449671  -0.2207030  -0.3570889), wk =   0.0020000
        k(  328) = (   0.5728279  -0.1485638  -0.2856711), wk =   0.0020000
        k(  329) = (   0.5006887  -0.0764247  -0.2142534), wk =   0.0020000
        k(  330) = (   0.4285496  -0.0042855  -0.1428356), wk =   0.0020000
        k(  331) = (   0.4285496  -0.0042855  -0.0000000), wk =   0.0020000
        k(  332) = (   0.3564104   0.0678537   0.0714178), wk =   0.0020000
        k(  333) = (   0.2842712   0.1399929   0.1428356), wk =   0.0020000
        k(  334) = (   0.2121320   0.2121320   0.2142534), wk =   0.0020000
        k(  335) = (   0.1399929   0.2842712   0.2856711), wk =   0.0020000
        k(  336) = (   0.7892454  -0.3649814  -0.3570889), wk =   0.0020000
        k(  337) = (   0.7171063  -0.2928422  -0.2856711), wk =   0.0020000
        k(  338) = (   0.6449671  -0.2207030  -0.2142534), wk =   0.0020000
        k(  339) = (   0.5728279  -0.1485638  -0.1428356), wk =   0.0020000
        k(  340) = (   0.5006887  -0.0764247  -0.0714178), wk =   0.0020000
        k(  341) = (   0.5006887  -0.0764247   0.0714178), wk =   0.0020000
        k(  342) = (   0.4285496  -0.0042855   0.1428356), wk =   0.0020000
        k(  343) = (   0.3564104   0.0678537   0.2142534), wk =   0.0020000
        k(  344) = (   0.2842712   0.1399929   0.2856711), wk =   0.0020000
        k(  345) = (   0.2121320   0.2121320   0.3570889), wk =   0.0020000
        k(  346) = (   0.8613846  -0.4371206  -0.2856711), wk =   0.0020000
        k(  347) = (   0.7892454  -0.3649814  -0.2142534), wk =   0.0020000
        k(  348) = (   0.7171063  -0.2928422  -0.1428356), wk =   0.0020000
        k(  349) = (   0.6449671  -0.2207030  -0.0714178), wk =   0.0020000
        k(  350) = (   0.5728279  -0.1485638  -0.0000000), wk =   0.0020000
        k(  351) = (  -0.1485638   0.5728279  -0.5713423), wk =   0.0020000
        k(  352) = (  -0.2207030   0.6449671  -0.4999245), wk =   0.0020000
        k(  353) = (  -0.2928422   0.7171063  -0.4285067), wk =   0.0020000
        k(  354) = (  -0.3649814   0.7892454  -0.3570889), wk =   0.0020000
        k(  355) = (  -0.4371206   0.8613846  -0.2856711), wk =   0.0020000
        k(  356) = (   0.2121320   0.2121320  -0.9284312), wk =   0.0020000
        k(  357) = (   0.1399929   0.2842712  -0.8570134), wk =   0.0020000
        k(  358) = (   0.0678537   0.3564104  -0.7855956), wk =   0.0020000
        k(  359) = (  -0.0042855   0.4285496  -0.7141778), wk =   0.0020000
        k(  360) = (  -0.0764247   0.5006887  -0.6427601), wk =   0.0020000
        k(  361) = (  -0.0764247   0.5006887  -0.4999245), wk =   0.0020000
        k(  362) = (  -0.1485638   0.5728279  -0.4285067), wk =   0.0020000
        k(  363) = (  -0.2207030   0.6449671  -0.3570889), wk =   0.0020000
        k(  364) = (  -0.2928422   0.7171063  -0.2856711), wk =   0.0020000
        k(  365) = (  -0.3649814   0.7892454  -0.2142534), wk =   0.0020000
        k(  366) = (   0.2842712   0.1399929  -0.8570134), wk =   0.0020000
        k(  367) = (   0.2121320   0.2121320  -0.7855956), wk =   0.0020000
        k(  368) = (   0.1399929   0.2842712  -0.7141778), wk =   0.0020000
        k(  369) = (   0.0678537   0.3564104  -0.6427601), wk =   0.0020000
        k(  370) = (  -0.0042855   0.4285496  -0.5713423), wk =   0.0020000
        k(  371) = (  -0.0042855   0.4285496  -0.4285067), wk =   0.0020000
        k(  372) = (  -0.0764247   0.5006887  -0.3570889), wk =   0.0020000
        k(  373) = (  -0.1485638   0.5728279  -0.2856711), wk =   0.0020000
        k(  374) = (  -0.2207030   0.6449671  -0.2142534), wk =   0.0020000
        k(  375) = (  -0.2928422   0.7171063  -0.1428356), wk =   0.0020000
        k(  376) = (   0.3564104   0.0678537  -0.7855956), wk =   0.0020000
        k(  377) = (   0.2842712   0.1399929  -0.7141778), wk =   0.0020000
        k(  378) = (   0.2121320   0.2121320  -0.6427601), wk =   0.0020000
        k(  379) = (   0.1399929   0.2842712  -0.5713423), wk =   0.0020000
        k(  380) = (   0.0678537   0.3564104  -0.4999245), wk =   0.0020000
        k(  381) = (   0.0678537   0.3564104  -0.3570889), wk =   0.0020000
        k(  382) = (  -0.0042855   0.4285496  -0.2856711), wk =   0.0020000
        k(  383) = (  -0.0764247   0.5006887  -0.2142534), wk =   0.0020000
        k(  384) = (  -0.1485638   0.5728279  -0.1428356), wk =   0.0020000
        k(  385) = (  -0.2207030   0.6449671  -0.0714178), wk =   0.0020000
        k(  386) = (   0.4285496  -0.0042855  -0.7141778), wk =   0.0020000
        k(  387) = (   0.3564104   0.0678537  -0.6427601), wk =   0.0020000
        k(  388) = (   0.2842712   0.1399929  -0.5713423), wk =   0.0020000
        k(  389) = (   0.2121320   0.2121320  -0.4999245), wk =   0.0020000
        k(  390) = (   0.1399929   0.2842712  -0.4285067), wk =   0.0020000
        k(  391) = (   0.1399929   0.2842712  -0.2856711), wk =   0.0020000
        k(  392) = (   0.0678537   0.3564104  -0.2142534), wk =   0.0020000
        k(  393) = (  -0.0042855   0.4285496  -0.1428356), wk =   0.0020000
        k(  394) = (  -0.0764247   0.5006887  -0.0714178), wk =   0.0020000
        k(  395) = (  -0.1485638   0.5728279  -0.0000000), wk =   0.0020000
        k(  396) = (   0.5006887  -0.0764247  -0.6427601), wk =   0.0020000
        k(  397) = (   0.4285496  -0.0042855  -0.5713423), wk =   0.0020000
        k(  398) = (   0.3564104   0.0678537  -0.4999245), wk =   0.0020000
        k(  399) = (   0.2842712   0.1399929  -0.4285067), wk =   0.0020000
        k(  400) = (   0.2121320   0.2121320  -0.3570889), wk =   0.0020000
        k(  401) = (   0.2828427   0.2828427  -0.2856711), wk =   0.0020000
        k(  402) = (   0.2107035   0.3549819  -0.2142534), wk =   0.0020000
        k(  403) = (   0.1385644   0.4271211  -0.1428356), wk =   0.0020000
        k(  404) = (   0.0664252   0.4992602  -0.0714178), wk =   0.0020000
        k(  405) = (  -0.0057140   0.5713994  -0.0000000), wk =   0.0020000
        k(  406) = (   0.6435386  -0.0778532  -0.6427601), wk =   0.0020000
        k(  407) = (   0.5713994  -0.0057140  -0.5713423), wk =   0.0020000
        k(  408) = (   0.4992602   0.0664252  -0.4999245), wk =   0.0020000
        k(  409) = (   0.4271211   0.1385644  -0.4285067), wk =   0.0020000
        k(  410) = (   0.3549819   0.2107035  -0.3570889), wk =   0.0020000
        k(  411) = (   0.3549819   0.2107035  -0.2142534), wk =   0.0020000
        k(  412) = (   0.2828427   0.2828427  -0.1428356), wk =   0.0020000
        k(  413) = (   0.2107035   0.3549819  -0.0714178), wk =   0.0020000
        k(  414) = (   0.1385644   0.4271211  -0.0000000), wk =   0.0020000
        k(  415) = (   0.0664252   0.4992602   0.0714178), wk =   0.0020000
        k(  416) = (   0.7156778  -0.1499923  -0.5713423), wk =   0.0020000
        k(  417) = (   0.6435386  -0.0778532  -0.4999245), wk =   0.0020000
        k(  418) = (   0.5713994  -0.0057140  -0.4285067), wk =   0.0020000
        k(  419) = (   0.4992602   0.0664252  -0.3570889), wk =   0.0020000
        k(  420) = (   0.4271211   0.1385644  -0.2856711), wk =   0.0020000
        k(  421) = (   0.4271211   0.1385644  -0.1428356), wk =   0.0020000
        k(  422) = (   0.3549819   0.2107035  -0.0714178), wk =   0.0020000
        k(  423) = (   0.2828427   0.2828427  -0.0000000), wk =   0.0020000
        k(  424) = (   0.2107035   0.3549819   0.0714178), wk =   0.0020000
        k(  425) = (   0.1385644   0.4271211   0.1428356), wk =   0.0020000
        k(  426) = (   0.7878169  -0.2221315  -0.4999245), wk =   0.0020000
        k(  427) = (   0.7156778  -0.1499923  -0.4285067), wk =   0.0020000
        k(  428) = (   0.6435386  -0.0778532  -0.3570889), wk =   0.0020000
        k(  429) = (   0.5713994  -0.0057140  -0.2856711), wk =   0.0020000
        k(  430) = (   0.4992602   0.0664252  -0.2142534), wk =   0.0020000
        k(  431) = (   0.4992602   0.0664252  -0.0714178), wk =   0.0020000
        k(  432) = (   0.4271211   0.1385644  -0.0000000), wk =   0.0020000
        k(  433) = (   0.3549819   0.2107035   0.0714178), wk =   0.0020000
        k(  434) = (   0.2828427   0.2828427   0.1428356), wk =   0.0020000
        k(  435) = (   0.2107035   0.3549819   0.2142534), wk =   0.0020000
        k(  436) = (   0.8599561  -0.2942707  -0.4285067), wk =   0.0020000
        k(  437) = (   0.7878169  -0.2221315  -0.3570889), wk =   0.0020000
        k(  438) = (   0.7156778  -0.1499923  -0.2856711), wk =   0.0020000
        k(  439) = (   0.6435386  -0.0778532  -0.2142534), wk =   0.0020000
        k(  440) = (   0.5713994  -0.0057140  -0.1428356), wk =   0.0020000
        k(  441) = (   0.5713994  -0.0057140  -0.0000000), wk =   0.0020000
        k(  442) = (   0.4992602   0.0664252   0.0714178), wk =   0.0020000
        k(  443) = (   0.4271211   0.1385644   0.1428356), wk =   0.0020000
        k(  444) = (   0.3549819   0.2107035   0.2142534), wk =   0.0020000
        k(  445) = (   0.2828427   0.2828427   0.2856711), wk =   0.0020000
        k(  446) = (   0.9320953  -0.3664099  -0.3570889), wk =   0.0020000
        k(  447) = (   0.8599561  -0.2942707  -0.2856711), wk =   0.0020000
        k(  448) = (   0.7878169  -0.2221315  -0.2142534), wk =   0.0020000
        k(  449) = (   0.7156778  -0.1499923  -0.1428356), wk =   0.0020000
        k(  450) = (   0.6435386  -0.0778532  -0.0714178), wk =   0.0020000
        k(  451) = (  -0.0778532   0.6435386  -0.6427601), wk =   0.0020000
        k(  452) = (  -0.1499923   0.7156778  -0.5713423), wk =   0.0020000
        k(  453) = (  -0.2221315   0.7878169  -0.4999245), wk =   0.0020000
        k(  454) = (  -0.2942707   0.8599561  -0.4285067), wk =   0.0020000
        k(  455) = (  -0.3664099   0.9320953  -0.3570889), wk =   0.0020000
        k(  456) = (   0.2828427   0.2828427  -0.9998490), wk =   0.0020000
        k(  457) = (   0.2107035   0.3549819  -0.9284312), wk =   0.0020000
        k(  458) = (   0.1385644   0.4271211  -0.8570134), wk =   0.0020000
        k(  459) = (   0.0664252   0.4992602  -0.7855956), wk =   0.0020000
        k(  460) = (  -0.0057140   0.5713994  -0.7141778), wk =   0.0020000
        k(  461) = (  -0.0057140   0.5713994  -0.5713423), wk =   0.0020000
        k(  462) = (  -0.0778532   0.6435386  -0.4999245), wk =   0.0020000
        k(  463) = (  -0.1499923   0.7156778  -0.4285067), wk =   0.0020000
        k(  464) = (  -0.2221315   0.7878169  -0.3570889), wk =   0.0020000
        k(  465) = (  -0.2942707   0.8599561  -0.2856711), wk =   0.0020000
        k(  466) = (   0.3549819   0.2107035  -0.9284312), wk =   0.0020000
        k(  467) = (   0.2828427   0.2828427  -0.8570134), wk =   0.0020000
        k(  468) = (   0.2107035   0.3549819  -0.7855956), wk =   0.0020000
        k(  469) = (   0.1385644   0.4271211  -0.7141778), wk =   0.0020000
        k(  470) = (   0.0664252   0.4992602  -0.6427601), wk =   0.0020000
        k(  471) = (   0.0664252   0.4992602  -0.4999245), wk =   0.0020000
        k(  472) = (  -0.0057140   0.5713994  -0.4285067), wk =   0.0020000
        k(  473) = (  -0.0778532   0.6435386  -0.3570889), wk =   0.0020000
        k(  474) = (  -0.1499923   0.7156778  -0.2856711), wk =   0.0020000
        k(  475) = (  -0.2221315   0.7878169  -0.2142534), wk =   0.0020000
        k(  476) = (   0.4271211   0.1385644  -0.8570134), wk =   0.0020000
        k(  477) = (   0.3549819   0.2107035  -0.7855956), wk =   0.0020000
        k(  478) = (   0.2828427   0.2828427  -0.7141778), wk =   0.0020000
        k(  479) = (   0.2107035   0.3549819  -0.6427601), wk =   0.0020000
        k(  480) = (   0.1385644   0.4271211  -0.5713423), wk =   0.0020000
        k(  481) = (   0.1385644   0.4271211  -0.4285067), wk =   0.0020000
        k(  482) = (   0.0664252   0.4992602  -0.3570889), wk =   0.0020000
        k(  483) = (  -0.0057140   0.5713994  -0.2856711), wk =   0.0020000
        k(  484) = (  -0.0778532   0.6435386  -0.2142534), wk =   0.0020000
        k(  485) = (  -0.1499923   0.7156778  -0.1428356), wk =   0.0020000
        k(  486) = (   0.4992602   0.0664252  -0.7855956), wk =   0.0020000
        k(  487) = (   0.4271211   0.1385644  -0.7141778), wk =   0.0020000
        k(  488) = (   0.3549819   0.2107035  -0.6427601), wk =   0.0020000
        k(  489) = (   0.2828427   0.2828427  -0.5713423), wk =   0.0020000
        k(  490) = (   0.2107035   0.3549819  -0.4999245), wk =   0.0020000
        k(  491) = (   0.2107035   0.3549819  -0.3570889), wk =   0.0020000
        k(  492) = (   0.1385644   0.4271211  -0.2856711), wk =   0.0020000
        k(  493) = (   0.0664252   0.4992602  -0.2142534), wk =   0.0020000
        k(  494) = (  -0.0057140   0.5713994  -0.1428356), wk =   0.0020000
        k(  495) = (  -0.0778532   0.6435386  -0.0714178), wk =   0.0020000
        k(  496) = (   0.5713994  -0.0057140  -0.7141778), wk =   0.0020000
        k(  497) = (   0.4992602   0.0664252  -0.6427601), wk =   0.0020000
        k(  498) = (   0.4271211   0.1385644  -0.5713423), wk =   0.0020000
        k(  499) = (   0.3549819   0.2107035  -0.4999245), wk =   0.0020000
        k(  500) = (   0.2828427   0.2828427  -0.4285067), wk =   0.0020000
        k(  501) = (  -0.3535534  -0.3535534   0.3570889), wk =   0.0020000
        k(  502) = (  -0.4256926  -0.2814142   0.4285067), wk =   0.0020000
        k(  503) = (  -0.4978317  -0.2092750   0.4999245), wk =   0.0020000
        k(  504) = (  -0.5699709  -0.1371359   0.5713423), wk =   0.0020000
        k(  505) = (  -0.6421101  -0.0649967   0.6427601), wk =   0.0020000
        k(  506) = (   0.0071425  -0.7142493   0.0000000), wk =   0.0020000
        k(  507) = (  -0.0649967  -0.6421101   0.0714178), wk =   0.0020000
        k(  508) = (  -0.1371359  -0.5699709   0.1428356), wk =   0.0020000
        k(  509) = (  -0.2092750  -0.4978317   0.2142534), wk =   0.0020000
        k(  510) = (  -0.2814142  -0.4256926   0.2856711), wk =   0.0020000
        k(  511) = (  -0.2814142  -0.4256926   0.4285067), wk =   0.0020000
        k(  512) = (  -0.3535534  -0.3535534   0.4999245), wk =   0.0020000
        k(  513) = (  -0.4256926  -0.2814142   0.5713423), wk =   0.0020000
        k(  514) = (  -0.4978317  -0.2092750   0.6427601), wk =   0.0020000
        k(  515) = (  -0.5699709  -0.1371359   0.7141778), wk =   0.0020000
        k(  516) = (   0.0792817  -0.7863885   0.0714178), wk =   0.0020000
        k(  517) = (   0.0071425  -0.7142493   0.1428356), wk =   0.0020000
        k(  518) = (  -0.0649967  -0.6421101   0.2142534), wk =   0.0020000
        k(  519) = (  -0.1371359  -0.5699709   0.2856711), wk =   0.0020000
        k(  520) = (  -0.2092750  -0.4978317   0.3570889), wk =   0.0020000
        k(  521) = (  -0.2092750  -0.4978317   0.4999245), wk =   0.0020000
        k(  522) = (  -0.2814142  -0.4256926   0.5713423), wk =   0.0020000
        k(  523) = (  -0.3535534  -0.3535534   0.6427601), wk =   0.0020000
        k(  524) = (  -0.4256926  -0.2814142   0.7141778), wk =   0.0020000
        k(  525) = (  -0.4978317  -0.2092750   0.7855956), wk =   0.0020000
        k(  526) = (   0.1514208  -0.8585276   0.1428356), wk =   0.0020000
        k(  527) = (   0.0792817  -0.7863885   0.2142534), wk =   0.0020000
        k(  528) = (   0.0071425  -0.7142493   0.2856711), wk =   0.0020000
        k(  529) = (  -0.0649967  -0.6421101   0.3570889), wk =   0.0020000
        k(  530) = (  -0.1371359  -0.5699709   0.4285067), wk =   0.0020000
        k(  531) = (  -0.1371359  -0.5699709   0.5713423), wk =   0.0020000
        k(  532) = (  -0.2092750  -0.4978317   0.6427601), wk =   0.0020000
        k(  533) = (  -0.2814142  -0.4256926   0.7141778), wk =   0.0020000
        k(  534) = (  -0.3535534  -0.3535534   0.7855956), wk =   0.0020000
        k(  535) = (  -0.4256926  -0.2814142   0.8570134), wk =   0.0020000
        k(  536) = (   0.2235600  -0.9306668   0.2142534), wk =   0.0020000
        k(  537) = (   0.1514208  -0.8585276   0.2856711), wk =   0.0020000
        k(  538) = (   0.0792817  -0.7863885   0.3570889), wk =   0.0020000
        k(  539) = (   0.0071425  -0.7142493   0.4285067), wk =   0.0020000
        k(  540) = (  -0.0649967  -0.6421101   0.4999245), wk =   0.0020000
        k(  541) = (  -0.0649967  -0.6421101   0.6427601), wk =   0.0020000
        k(  542) = (  -0.1371359  -0.5699709   0.7141778), wk =   0.0020000
        k(  543) = (  -0.2092750  -0.4978317   0.7855956), wk =   0.0020000
        k(  544) = (  -0.2814142  -0.4256926   0.8570134), wk =   0.0020000
        k(  545) = (  -0.3535534  -0.3535534   0.9284312), wk =   0.0020000
        k(  546) = (   0.2956992  -1.0028060   0.2856711), wk =   0.0020000
        k(  547) = (   0.2235600  -0.9306668   0.3570889), wk =   0.0020000
        k(  548) = (   0.1514208  -0.8585276   0.4285067), wk =   0.0020000
        k(  549) = (   0.0792817  -0.7863885   0.4999245), wk =   0.0020000
        k(  550) = (   0.0071425  -0.7142493   0.5713423), wk =   0.0020000
        k(  551) = (  -0.7142493   0.0071425   0.0000000), wk =   0.0020000
        k(  552) = (  -0.7863885   0.0792817   0.0714178), wk =   0.0020000
        k(  553) = (  -0.8585276   0.1514208   0.1428356), wk =   0.0020000
        k(  554) = (  -0.9306668   0.2235600   0.2142534), wk =   0.0020000
        k(  555) = (  -1.0028060   0.2956992   0.2856711), wk =   0.0020000
        k(  556) = (  -0.3535534  -0.3535534  -0.3570889), wk =   0.0020000
        k(  557) = (  -0.4256926  -0.2814142  -0.2856711), wk =   0.0020000
        k(  558) = (  -0.4978317  -0.2092750  -0.2142534), wk =   0.0020000
        k(  559) = (  -0.5699709  -0.1371359  -0.1428356), wk =   0.0020000
        k(  560) = (  -0.6421101  -0.0649967  -0.0714178), wk =   0.0020000
        k(  561) = (  -0.6421101  -0.0649967   0.0714178), wk =   0.0020000
        k(  562) = (  -0.7142493   0.0071425   0.1428356), wk =   0.0020000
        k(  563) = (  -0.7863885   0.0792817   0.2142534), wk =   0.0020000
        k(  564) = (  -0.8585276   0.1514208   0.2856711), wk =   0.0020000
        k(  565) = (  -0.9306668   0.2235600   0.3570889), wk =   0.0020000
        k(  566) = (  -0.2814142  -0.4256926  -0.2856711), wk =   0.0020000
        k(  567) = (  -0.3535534  -0.3535534  -0.2142534), wk =   0.0020000
        k(  568) = (  -0.4256926  -0.2814142  -0.1428356), wk =   0.0020000
        k(  569) = (  -0.4978317  -0.2092750  -0.0714178), wk =   0.0020000
        k(  570) = (  -0.5699709  -0.1371359   0.0000000), wk =   0.0020000
        k(  571) = (  -0.5699709  -0.1371359   0.1428356), wk =   0.0020000
        k(  572) = (  -0.6421101  -0.0649967   0.2142534), wk =   0.0020000
        k(  573) = (  -0.7142493   0.0071425   0.2856711), wk =   0.0020000
        k(  574) = (  -0.7863885   0.0792817   0.3570889), wk =   0.0020000
        k(  575) = (  -0.8585276   0.1514208   0.4285067), wk =   0.0020000
        k(  576) = (  -0.2092750  -0.4978317  -0.2142534), wk =   0.0020000
        k(  577) = (  -0.2814142  -0.4256926  -0.1428356), wk =   0.0020000
        k(  578) = (  -0.3535534  -0.3535534  -0.0714178), wk =   0.0020000
        k(  579) = (  -0.4256926  -0.2814142   0.0000000), wk =   0.0020000
        k(  580) = (  -0.4978317  -0.2092750   0.0714178), wk =   0.0020000
        k(  581) = (  -0.4978317  -0.2092750   0.2142534), wk =   0.0020000
        k(  582) = (  -0.5699709  -0.1371359   0.2856711), wk =   0.0020000
        k(  583) = (  -0.6421101  -0.0649967   0.3570889), wk =   0.0020000
        k(  584) = (  -0.7142493   0.0071425   0.4285067), wk =   0.0020000
        k(  585) = (  -0.7863885   0.0792817   0.4999245), wk =   0.0020000
        k(  586) = (  -0.1371359  -0.5699709  -0.1428356), wk =   0.0020000
        k(  587) = (  -0.2092750  -0.4978317  -0.0714178), wk =   0.0020000
        k(  588) = (  -0.2814142  -0.4256926   0.0000000), wk =   0.0020000
        k(  589) = (  -0.3535534  -0.3535534   0.0714178), wk =   0.0020000
        k(  590) = (  -0.4256926  -0.2814142   0.1428356), wk =   0.0020000
        k(  591) = (  -0.4256926  -0.2814142   0.2856711), wk =   0.0020000
        k(  592) = (  -0.4978317  -0.2092750   0.3570889), wk =   0.0020000
        k(  593) = (  -0.5699709  -0.1371359   0.4285067), wk =   0.0020000
        k(  594) = (  -0.6421101  -0.0649967   0.4999245), wk =   0.0020000
        k(  595) = (  -0.7142493   0.0071425   0.5713423), wk =   0.0020000
        k(  596) = (  -0.0649967  -0.6421101  -0.0714178), wk =   0.0020000
        k(  597) = (  -0.1371359  -0.5699709   0.0000000), wk =   0.0020000
        k(  598) = (  -0.2092750  -0.4978317   0.0714178), wk =   0.0020000
        k(  599) = (  -0.2814142  -0.4256926   0.1428356), wk =   0.0020000
        k(  600) = (  -0.3535534  -0.3535534   0.2142534), wk =   0.0020000
        k(  601) = (  -0.2828427  -0.2828427   0.2856711), wk =   0.0020000
        k(  602) = (  -0.3549819  -0.2107035   0.3570889), wk =   0.0020000
        k(  603) = (  -0.4271211  -0.1385644   0.4285067), wk =   0.0020000
        k(  604) = (  -0.4992602  -0.0664252   0.4999245), wk =   0.0020000
        k(  605) = (  -0.5713994   0.0057140   0.5713423), wk =   0.0020000
        k(  606) = (   0.0778532  -0.6435386  -0.0714178), wk =   0.0020000
        k(  607) = (   0.0057140  -0.5713994   0.0000000), wk =   0.0020000
        k(  608) = (  -0.0664252  -0.4992602   0.0714178), wk =   0.0020000
        k(  609) = (  -0.1385644  -0.4271211   0.1428356), wk =   0.0020000
        k(  610) = (  -0.2107035  -0.3549819   0.2142534), wk =   0.0020000
        k(  611) = (  -0.2107035  -0.3549819   0.3570889), wk =   0.0020000
        k(  612) = (  -0.2828427  -0.2828427   0.4285067), wk =   0.0020000
        k(  613) = (  -0.3549819  -0.2107035   0.4999245), wk =   0.0020000
        k(  614) = (  -0.4271211  -0.1385644   0.5713423), wk =   0.0020000
        k(  615) = (  -0.4992602  -0.0664252   0.6427601), wk =   0.0020000
        k(  616) = (   0.1499923  -0.7156778   0.0000000), wk =   0.0020000
        k(  617) = (   0.0778532  -0.6435386   0.0714178), wk =   0.0020000
        k(  618) = (   0.0057140  -0.5713994   0.1428356), wk =   0.0020000
        k(  619) = (  -0.0664252  -0.4992602   0.2142534), wk =   0.0020000
        k(  620) = (  -0.1385644  -0.4271211   0.2856711), wk =   0.0020000
        k(  621) = (  -0.1385644  -0.4271211   0.4285067), wk =   0.0020000
        k(  622) = (  -0.2107035  -0.3549819   0.4999245), wk =   0.0020000
        k(  623) = (  -0.2828427  -0.2828427   0.5713423), wk =   0.0020000
        k(  624) = (  -0.3549819  -0.2107035   0.6427601), wk =   0.0020000
        k(  625) = (  -0.4271211  -0.1385644   0.7141778), wk =   0.0020000
        k(  626) = (   0.2221315  -0.7878169   0.0714178), wk =   0.0020000
        k(  627) = (   0.1499923  -0.7156778   0.1428356), wk =   0.0020000
        k(  628) = (   0.0778532  -0.6435386   0.2142534), wk =   0.0020000
        k(  629) = (   0.0057140  -0.5713994   0.2856711), wk =   0.0020000
        k(  630) = (  -0.0664252  -0.4992602   0.3570889), wk =   0.0020000
        k(  631) = (  -0.0664252  -0.4992602   0.4999245), wk =   0.0020000
        k(  632) = (  -0.1385644  -0.4271211   0.5713423), wk =   0.0020000
        k(  633) = (  -0.2107035  -0.3549819   0.6427601), wk =   0.0020000
        k(  634) = (  -0.2828427  -0.2828427   0.7141778), wk =   0.0020000
        k(  635) = (  -0.3549819  -0.2107035   0.7855956), wk =   0.0020000
        k(  636) = (   0.2942707  -0.8599561   0.1428356), wk =   0.0020000
        k(  637) = (   0.2221315  -0.7878169   0.2142534), wk =   0.0020000
        k(  638) = (   0.1499923  -0.7156778   0.2856711), wk =   0.0020000
        k(  639) = (   0.0778532  -0.6435386   0.3570889), wk =   0.0020000
        k(  640) = (   0.0057140  -0.5713994   0.4285067), wk =   0.0020000
        k(  641) = (   0.0057140  -0.5713994   0.5713423), wk =   0.0020000
        k(  642) = (  -0.0664252  -0.4992602   0.6427601), wk =   0.0020000
        k(  643) = (  -0.1385644  -0.4271211   0.7141778), wk =   0.0020000
        k(  644) = (  -0.2107035  -0.3549819   0.7855956), wk =   0.0020000
        k(  645) = (  -0.2828427  -0.2828427   0.8570134), wk =   0.0020000
        k(  646) = (   0.3664099  -0.9320953   0.2142534), wk =   0.0020000
        k(  647) = (   0.2942707  -0.8599561   0.2856711), wk =   0.0020000
        k(  648) = (   0.2221315  -0.7878169   0.3570889), wk =   0.0020000
        k(  649) = (   0.1499923  -0.7156778   0.4285067), wk =   0.0020000
        k(  650) = (   0.0778532  -0.6435386   0.4999245), wk =   0.0020000
        k(  651) = (  -0.6435386   0.0778532  -0.0714178), wk =   0.0020000
        k(  652) = (  -0.7156778   0.1499923   0.0000000), wk =   0.0020000
        k(  653) = (  -0.7878169   0.2221315   0.0714178), wk =   0.0020000
        k(  654) = (  -0.8599561   0.2942707   0.1428356), wk =   0.0020000
        k(  655) = (  -0.9320953   0.3664099   0.2142534), wk =   0.0020000
        k(  656) = (  -0.2828427  -0.2828427  -0.4285067), wk =   0.0020000
        k(  657) = (  -0.3549819  -0.2107035  -0.3570889), wk =   0.0020000
        k(  658) = (  -0.4271211  -0.1385644  -0.2856711), wk =   0.0020000
        k(  659) = (  -0.4992602  -0.0664252  -0.2142534), wk =   0.0020000
        k(  660) = (  -0.5713994   0.0057140  -0.1428356), wk =   0.0020000
        k(  661) = (  -0.5713994   0.0057140   0.0000000), wk =   0.0020000
        k(  662) = (  -0.6435386   0.0778532   0.0714178), wk =   0.0020000
        k(  663) = (  -0.7156778   0.1499923   0.1428356), wk =   0.0020000
        k(  664) = (  -0.7878169   0.2221315   0.2142534), wk =   0.0020000
        k(  665) = (  -0.8599561   0.2942707   0.2856711), wk =   0.0020000
        k(  666) = (  -0.2107035  -0.3549819  -0.3570889), wk =   0.0020000
        k(  667) = (  -0.2828427  -0.2828427  -0.2856711), wk =   0.0020000
        k(  668) = (  -0.3549819  -0.2107035  -0.2142534), wk =   0.0020000
        k(  669) = (  -0.4271211  -0.1385644  -0.1428356), wk =   0.0020000
        k(  670) = (  -0.4992602  -0.0664252  -0.0714178), wk =   0.0020000
        k(  671) = (  -0.4992602  -0.0664252   0.0714178), wk =   0.0020000
        k(  672) = (  -0.5713994   0.0057140   0.1428356), wk =   0.0020000
        k(  673) = (  -0.6435386   0.0778532   0.2142534), wk =   0.0020000
        k(  674) = (  -0.7156778   0.1499923   0.2856711), wk =   0.0020000
        k(  675) = (  -0.7878169   0.2221315   0.3570889), wk =   0.0020000
        k(  676) = (  -0.1385644  -0.4271211  -0.2856711), wk =   0.0020000
        k(  677) = (  -0.2107035  -0.3549819  -0.2142534), wk =   0.0020000
        k(  678) = (  -0.2828427  -0.2828427  -0.1428356), wk =   0.0020000
        k(  679) = (  -0.3549819  -0.2107035  -0.0714178), wk =   0.0020000
        k(  680) = (  -0.4271211  -0.1385644   0.0000000), wk =   0.0020000
        k(  681) = (  -0.4271211  -0.1385644   0.1428356), wk =   0.0020000
        k(  682) = (  -0.4992602  -0.0664252   0.2142534), wk =   0.0020000
        k(  683) = (  -0.5713994   0.0057140   0.2856711), wk =   0.0020000
        k(  684) = (  -0.6435386   0.0778532   0.3570889), wk =   0.0020000
        k(  685) = (  -0.7156778   0.1499923   0.4285067), wk =   0.0020000
        k(  686) = (  -0.0664252  -0.4992602  -0.2142534), wk =   0.0020000
        k(  687) = (  -0.1385644  -0.4271211  -0.1428356), wk =   0.0020000
        k(  688) = (  -0.2107035  -0.3549819  -0.0714178), wk =   0.0020000
        k(  689) = (  -0.2828427  -0.2828427   0.0000000), wk =   0.0020000
        k(  690) = (  -0.3549819  -0.2107035   0.0714178), wk =   0.0020000
        k(  691) = (  -0.3549819  -0.2107035   0.2142534), wk =   0.0020000
        k(  692) = (  -0.4271211  -0.1385644   0.2856711), wk =   0.0020000
        k(  693) = (  -0.4992602  -0.0664252   0.3570889), wk =   0.0020000
        k(  694) = (  -0.5713994   0.0057140   0.4285067), wk =   0.0020000
        k(  695) = (  -0.6435386   0.0778532   0.4999245), wk =   0.0020000
        k(  696) = (   0.0057140  -0.5713994  -0.1428356), wk =   0.0020000
        k(  697) = (  -0.0664252  -0.4992602  -0.0714178), wk =   0.0020000
        k(  698) = (  -0.1385644  -0.4271211   0.0000000), wk =   0.0020000
        k(  699) = (  -0.2107035  -0.3549819   0.0714178), wk =   0.0020000
        k(  700) = (  -0.2828427  -0.2828427   0.1428356), wk =   0.0020000
        k(  701) = (  -0.2121320  -0.2121320   0.2142534), wk =   0.0020000
        k(  702) = (  -0.2842712  -0.1399929   0.2856711), wk =   0.0020000
        k(  703) = (  -0.3564104  -0.0678537   0.3570889), wk =   0.0020000
        k(  704) = (  -0.4285496   0.0042855   0.4285067), wk =   0.0020000
        k(  705) = (  -0.5006887   0.0764247   0.4999245), wk =   0.0020000
        k(  706) = (   0.1485638  -0.5728279  -0.1428356), wk =   0.0020000
        k(  707) = (   0.0764247  -0.5006887  -0.0714178), wk =   0.0020000
        k(  708) = (   0.0042855  -0.4285496   0.0000000), wk =   0.0020000
        k(  709) = (  -0.0678537  -0.3564104   0.0714178), wk =   0.0020000
        k(  710) = (  -0.1399929  -0.2842712   0.1428356), wk =   0.0020000
        k(  711) = (  -0.1399929  -0.2842712   0.2856711), wk =   0.0020000
        k(  712) = (  -0.2121320  -0.2121320   0.3570889), wk =   0.0020000
        k(  713) = (  -0.2842712  -0.1399929   0.4285067), wk =   0.0020000
        k(  714) = (  -0.3564104  -0.0678537   0.4999245), wk =   0.0020000
        k(  715) = (  -0.4285496   0.0042855   0.5713423), wk =   0.0020000
        k(  716) = (   0.2207030  -0.6449671  -0.0714178), wk =   0.0020000
        k(  717) = (   0.1485638  -0.5728279   0.0000000), wk =   0.0020000
        k(  718) = (   0.0764247  -0.5006887   0.0714178), wk =   0.0020000
        k(  719) = (   0.0042855  -0.4285496   0.1428356), wk =   0.0020000
        k(  720) = (  -0.0678537  -0.3564104   0.2142534), wk =   0.0020000
        k(  721) = (  -0.0678537  -0.3564104   0.3570889), wk =   0.0020000
        k(  722) = (  -0.1399929  -0.2842712   0.4285067), wk =   0.0020000
        k(  723) = (  -0.2121320  -0.2121320   0.4999245), wk =   0.0020000
        k(  724) = (  -0.2842712  -0.1399929   0.5713423), wk =   0.0020000
        k(  725) = (  -0.3564104  -0.0678537   0.6427601), wk =   0.0020000
        k(  726) = (   0.2928422  -0.7171063   0.0000000), wk =   0.0020000
        k(  727) = (   0.2207030  -0.6449671   0.0714178), wk =   0.0020000
        k(  728) = (   0.1485638  -0.5728279   0.1428356), wk =   0.0020000
        k(  729) = (   0.0764247  -0.5006887   0.2142534), wk =   0.0020000
        k(  730) = (   0.0042855  -0.4285496   0.2856711), wk =   0.0020000
        k(  731) = (   0.0042855  -0.4285496   0.4285067), wk =   0.0020000
        k(  732) = (  -0.0678537  -0.3564104   0.4999245), wk =   0.0020000
        k(  733) = (  -0.1399929  -0.2842712   0.5713423), wk =   0.0020000
        k(  734) = (  -0.2121320  -0.2121320   0.6427601), wk =   0.0020000
        k(  735) = (  -0.2842712  -0.1399929   0.7141778), wk =   0.0020000
        k(  736) = (   0.3649814  -0.7892454   0.0714178), wk =   0.0020000
        k(  737) = (   0.2928422  -0.7171063   0.1428356), wk =   0.0020000
        k(  738) = (   0.2207030  -0.6449671   0.2142534), wk =   0.0020000
        k(  739) = (   0.1485638  -0.5728279   0.2856711), wk =   0.0020000
        k(  740) = (   0.0764247  -0.5006887   0.3570889), wk =   0.0020000
        k(  741) = (   0.0764247  -0.5006887   0.4999245), wk =   0.0020000
        k(  742) = (   0.0042855  -0.4285496   0.5713423), wk =   0.0020000
        k(  743) = (  -0.0678537  -0.3564104   0.6427601), wk =   0.0020000
        k(  744) = (  -0.1399929  -0.2842712   0.7141778), wk =   0.0020000
        k(  745) = (  -0.2121320  -0.2121320   0.7855956), wk =   0.0020000
        k(  746) = (   0.4371206  -0.8613846   0.1428356), wk =   0.0020000
        k(  747) = (   0.3649814  -0.7892454   0.2142534), wk =   0.0020000
        k(  748) = (   0.2928422  -0.7171063   0.2856711), wk =   0.0020000
        k(  749) = (   0.2207030  -0.6449671   0.3570889), wk =   0.0020000
        k(  750) = (   0.1485638  -0.5728279   0.4285067), wk =   0.0020000
        k(  751) = (  -0.5728279   0.1485638  -0.1428356), wk =   0.0020000
        k(  752) = (  -0.6449671   0.2207030  -0.0714178), wk =   0.0020000
        k(  753) = (  -0.7171063   0.2928422   0.0000000), wk =   0.0020000
        k(  754) = (  -0.7892454   0.3649814   0.0714178), wk =   0.0020000
        k(  755) = (  -0.8613846   0.4371206   0.1428356), wk =   0.0020000
        k(  756) = (  -0.2121320  -0.2121320  -0.4999245), wk =   0.0020000
        k(  757) = (  -0.2842712  -0.1399929  -0.4285067), wk =   0.0020000
        k(  758) = (  -0.3564104  -0.0678537  -0.3570889), wk =   0.0020000
        k(  759) = (  -0.4285496   0.0042855  -0.2856711), wk =   0.0020000
        k(  760) = (  -0.5006887   0.0764247  -0.2142534), wk =   0.0020000
        k(  761) = (  -0.5006887   0.0764247  -0.0714178), wk =   0.0020000
        k(  762) = (  -0.5728279   0.1485638   0.0000000), wk =   0.0020000
        k(  763) = (  -0.6449671   0.2207030   0.0714178), wk =   0.0020000
        k(  764) = (  -0.7171063   0.2928422   0.1428356), wk =   0.0020000
        k(  765) = (  -0.7892454   0.3649814   0.2142534), wk =   0.0020000
        k(  766) = (  -0.1399929  -0.2842712  -0.4285067), wk =   0.0020000
        k(  767) = (  -0.2121320  -0.2121320  -0.3570889), wk =   0.0020000
        k(  768) = (  -0.2842712  -0.1399929  -0.2856711), wk =   0.0020000
        k(  769) = (  -0.3564104  -0.0678537  -0.2142534), wk =   0.0020000
        k(  770) = (  -0.4285496   0.0042855  -0.1428356), wk =   0.0020000
        k(  771) = (  -0.4285496   0.0042855   0.0000000), wk =   0.0020000
        k(  772) = (  -0.5006887   0.0764247   0.0714178), wk =   0.0020000
        k(  773) = (  -0.5728279   0.1485638   0.1428356), wk =   0.0020000
        k(  774) = (  -0.6449671   0.2207030   0.2142534), wk =   0.0020000
        k(  775) = (  -0.7171063   0.2928422   0.2856711), wk =   0.0020000
        k(  776) = (  -0.0678537  -0.3564104  -0.3570889), wk =   0.0020000
        k(  777) = (  -0.1399929  -0.2842712  -0.2856711), wk =   0.0020000
        k(  778) = (  -0.2121320  -0.2121320  -0.2142534), wk =   0.0020000
        k(  779) = (  -0.2842712  -0.1399929  -0.1428356), wk =   0.0020000
        k(  780) = (  -0.3564104  -0.0678537  -0.0714178), wk =   0.0020000
        k(  781) = (  -0.3564104  -0.0678537   0.0714178), wk =   0.0020000
        k(  782) = (  -0.4285496   0.0042855   0.1428356), wk =   0.0020000
        k(  783) = (  -0.5006887   0.0764247   0.2142534), wk =   0.0020000
        k(  784) = (  -0.5728279   0.1485638   0.2856711), wk =   0.0020000
        k(  785) = (  -0.6449671   0.2207030   0.3570889), wk =   0.0020000
        k(  786) = (   0.0042855  -0.4285496  -0.2856711), wk =   0.0020000
        k(  787) = (  -0.0678537  -0.3564104  -0.2142534), wk =   0.0020000
        k(  788) = (  -0.1399929  -0.2842712  -0.1428356), wk =   0.0020000
        k(  789) = (  -0.2121320  -0.2121320  -0.0714178), wk =   0.0020000
        k(  790) = (  -0.2842712  -0.1399929   0.0000000), wk =   0.0020000
        k(  791) = (  -0.2842712  -0.1399929   0.1428356), wk =   0.0020000
        k(  792) = (  -0.3564104  -0.0678537   0.2142534), wk =   0.0020000
        k(  793) = (  -0.4285496   0.0042855   0.2856711), wk =   0.0020000
        k(  794) = (  -0.5006887   0.0764247   0.3570889), wk =   0.0020000
        k(  795) = (  -0.5728279   0.1485638   0.4285067), wk =   0.0020000
        k(  796) = (   0.0764247  -0.5006887  -0.2142534), wk =   0.0020000
        k(  797) = (   0.0042855  -0.4285496  -0.1428356), wk =   0.0020000
        k(  798) = (  -0.0678537  -0.3564104  -0.0714178), wk =   0.0020000
        k(  799) = (  -0.1399929  -0.2842712   0.0000000), wk =   0.0020000
        k(  800) = (  -0.2121320  -0.2121320   0.0714178), wk =   0.0020000
        k(  801) = (  -0.1414214  -0.1414214   0.1428356), wk =   0.0020000
        k(  802) = (  -0.2135605  -0.0692822   0.2142534), wk =   0.0020000
        k(  803) = (  -0.2856997   0.0028570   0.2856711), wk =   0.0020000
        k(  804) = (  -0.3578389   0.0749962   0.3570889), wk =   0.0020000
        k(  805) = (  -0.4299781   0.1471354   0.4285067), wk =   0.0020000
        k(  806) = (   0.2192745  -0.5021172  -0.2142534), wk =   0.0020000
        k(  807) = (   0.1471354  -0.4299781  -0.1428356), wk =   0.0020000
        k(  808) = (   0.0749962  -0.3578389  -0.0714178), wk =   0.0020000
        k(  809) = (   0.0028570  -0.2856997   0.0000000), wk =   0.0020000
        k(  810) = (  -0.0692822  -0.2135605   0.0714178), wk =   0.0020000
        k(  811) = (  -0.0692822  -0.2135605   0.2142534), wk =   0.0020000
        k(  812) = (  -0.1414214  -0.1414214   0.2856711), wk =   0.0020000
        k(  813) = (  -0.2135605  -0.0692822   0.3570889), wk =   0.0020000
        k(  814) = (  -0.2856997   0.0028570   0.4285067), wk =   0.0020000
        k(  815) = (  -0.3578389   0.0749962   0.4999245), wk =   0.0020000
        k(  816) = (   0.2914137  -0.5742564  -0.1428356), wk =   0.0020000
        k(  817) = (   0.2192745  -0.5021172  -0.0714178), wk =   0.0020000
        k(  818) = (   0.1471354  -0.4299781   0.0000000), wk =   0.0020000
        k(  819) = (   0.0749962  -0.3578389   0.0714178), wk =   0.0020000
        k(  820) = (   0.0028570  -0.2856997   0.1428356), wk =   0.0020000
        k(  821) = (   0.0028570  -0.2856997   0.2856711), wk =   0.0020000
        k(  822) = (  -0.0692822  -0.2135605   0.3570889), wk =   0.0020000
        k(  823) = (  -0.1414214  -0.1414214   0.4285067), wk =   0.0020000
        k(  824) = (  -0.2135605  -0.0692822   0.4999245), wk =   0.0020000
        k(  825) = (  -0.2856997   0.0028570   0.5713423), wk =   0.0020000
        k(  826) = (   0.3635529  -0.6463956  -0.0714178), wk =   0.0020000
        k(  827) = (   0.2914137  -0.5742564   0.0000000), wk =   0.0020000
        k(  828) = (   0.2192745  -0.5021172   0.0714178), wk =   0.0020000
        k(  829) = (   0.1471354  -0.4299781   0.1428356), wk =   0.0020000
        k(  830) = (   0.0749962  -0.3578389   0.2142534), wk =   0.0020000
        k(  831) = (   0.0749962  -0.3578389   0.3570889), wk =   0.0020000
        k(  832) = (   0.0028570  -0.2856997   0.4285067), wk =   0.0020000
        k(  833) = (  -0.0692822  -0.2135605   0.4999245), wk =   0.0020000
        k(  834) = (  -0.1414214  -0.1414214   0.5713423), wk =   0.0020000
        k(  835) = (  -0.2135605  -0.0692822   0.6427601), wk =   0.0020000
        k(  836) = (   0.4356921  -0.7185348   0.0000000), wk =   0.0020000
        k(  837) = (   0.3635529  -0.6463956   0.0714178), wk =   0.0020000
        k(  838) = (   0.2914137  -0.5742564   0.1428356), wk =   0.0020000
        k(  839) = (   0.2192745  -0.5021172   0.2142534), wk =   0.0020000
        k(  840) = (   0.1471354  -0.4299781   0.2856711), wk =   0.0020000
        k(  841) = (   0.1471354  -0.4299781   0.4285067), wk =   0.0020000
        k(  842) = (   0.0749962  -0.3578389   0.4999245), wk =   0.0020000
        k(  843) = (   0.0028570  -0.2856997   0.5713423), wk =   0.0020000
        k(  844) = (  -0.0692822  -0.2135605   0.6427601), wk =   0.0020000
        k(  845) = (  -0.1414214  -0.1414214   0.7141778), wk =   0.0020000
        k(  846) = (   0.5078312  -0.7906739   0.0714178), wk =   0.0020000
        k(  847) = (   0.4356921  -0.7185348   0.1428356), wk =   0.0020000
        k(  848) = (   0.3635529  -0.6463956   0.2142534), wk =   0.0020000
        k(  849) = (   0.2914137  -0.5742564   0.2856711), wk =   0.0020000
        k(  850) = (   0.2192745  -0.5021172   0.3570889), wk =   0.0020000
        k(  851) = (  -0.5021172   0.2192745  -0.2142534), wk =   0.0020000
        k(  852) = (  -0.5742564   0.2914137  -0.1428356), wk =   0.0020000
        k(  853) = (  -0.6463956   0.3635529  -0.0714178), wk =   0.0020000
        k(  854) = (  -0.7185348   0.4356921   0.0000000), wk =   0.0020000
        k(  855) = (  -0.7906739   0.5078312   0.0714178), wk =   0.0020000
        k(  856) = (  -0.1414214  -0.1414214  -0.5713423), wk =   0.0020000
        k(  857) = (  -0.2135605  -0.0692822  -0.4999245), wk =   0.0020000
        k(  858) = (  -0.2856997   0.0028570  -0.4285067), wk =   0.0020000
        k(  859) = (  -0.3578389   0.0749962  -0.3570889), wk =   0.0020000
        k(  860) = (  -0.4299781   0.1471354  -0.2856711), wk =   0.0020000
        k(  861) = (  -0.4299781   0.1471354  -0.1428356), wk =   0.0020000
        k(  862) = (  -0.5021172   0.2192745  -0.0714178), wk =   0.0020000
        k(  863) = (  -0.5742564   0.2914137   0.0000000), wk =   0.0020000
        k(  864) = (  -0.6463956   0.3635529   0.0714178), wk =   0.0020000
        k(  865) = (  -0.7185348   0.4356921   0.1428356), wk =   0.0020000
        k(  866) = (  -0.0692822  -0.2135605  -0.4999245), wk =   0.0020000
        k(  867) = (  -0.1414214  -0.1414214  -0.4285067), wk =   0.0020000
        k(  868) = (  -0.2135605  -0.0692822  -0.3570889), wk =   0.0020000
        k(  869) = (  -0.2856997   0.0028570  -0.2856711), wk =   0.0020000
        k(  870) = (  -0.3578389   0.0749962  -0.2142534), wk =   0.0020000
        k(  871) = (  -0.3578389   0.0749962  -0.0714178), wk =   0.0020000
        k(  872) = (  -0.4299781   0.1471354  -0.0000000), wk =   0.0020000
        k(  873) = (  -0.5021172   0.2192745   0.0714178), wk =   0.0020000
        k(  874) = (  -0.5742564   0.2914137   0.1428356), wk =   0.0020000
        k(  875) = (  -0.6463956   0.3635529   0.2142534), wk =   0.0020000
        k(  876) = (   0.0028570  -0.2856997  -0.4285067), wk =   0.0020000
        k(  877) = (  -0.0692822  -0.2135605  -0.3570889), wk =   0.0020000
        k(  878) = (  -0.1414214  -0.1414214  -0.2856711), wk =   0.0020000
        k(  879) = (  -0.2135605  -0.0692822  -0.2142534), wk =   0.0020000
        k(  880) = (  -0.2856997   0.0028570  -0.1428356), wk =   0.0020000
        k(  881) = (  -0.2856997   0.0028570   0.0000000), wk =   0.0020000
        k(  882) = (  -0.3578389   0.0749962   0.0714178), wk =   0.0020000
        k(  883) = (  -0.4299781   0.1471354   0.1428356), wk =   0.0020000
        k(  884) = (  -0.5021172   0.2192745   0.2142534), wk =   0.0020000
        k(  885) = (  -0.5742564   0.2914137   0.2856711), wk =   0.0020000
        k(  886) = (   0.0749962  -0.3578389  -0.3570889), wk =   0.0020000
        k(  887) = (   0.0028570  -0.2856997  -0.2856711), wk =   0.0020000
        k(  888) = (  -0.0692822  -0.2135605  -0.2142534), wk =   0.0020000
        k(  889) = (  -0.1414214  -0.1414214  -0.1428356), wk =   0.0020000
        k(  890) = (  -0.2135605  -0.0692822  -0.0714178), wk =   0.0020000
        k(  891) = (  -0.2135605  -0.0692822   0.0714178), wk =   0.0020000
        k(  892) = (  -0.2856997   0.0028570   0.1428356), wk =   0.0020000
        k(  893) = (  -0.3578389   0.0749962   0.2142534), wk =   0.0020000
        k(  894) = (  -0.4299781   0.1471354   0.2856711), wk =   0.0020000
        k(  895) = (  -0.5021172   0.2192745   0.3570889), wk =   0.0020000
        k(  896) = (   0.1471354  -0.4299781  -0.2856711), wk =   0.0020000
        k(  897) = (   0.0749962  -0.3578389  -0.2142534), wk =   0.0020000
        k(  898) = (   0.0028570  -0.2856997  -0.1428356), wk =   0.0020000
        k(  899) = (  -0.0692822  -0.2135605  -0.0714178), wk =   0.0020000
        k(  900) = (  -0.1414214  -0.1414214   0.0000000), wk =   0.0020000
        k(  901) = (  -0.0707107  -0.0707107   0.0714178), wk =   0.0020000
        k(  902) = (  -0.1428499   0.0014285   0.1428356), wk =   0.0020000
        k(  903) = (  -0.2149890   0.0735677   0.2142534), wk =   0.0020000
        k(  904) = (  -0.2871282   0.1457069   0.2856711), wk =   0.0020000
        k(  905) = (  -0.3592674   0.2178460   0.3570889), wk =   0.0020000
        k(  906) = (   0.2899852  -0.4314066  -0.2856711), wk =   0.0020000
        k(  907) = (   0.2178460  -0.3592674  -0.2142534), wk =   0.0020000
        k(  908) = (   0.1457069  -0.2871282  -0.1428356), wk =   0.0020000
        k(  909) = (   0.0735677  -0.2149890  -0.0714178), wk =   0.0020000
        k(  910) = (   0.0014285  -0.1428499   0.0000000), wk =   0.0020000
        k(  911) = (   0.0014285  -0.1428499   0.1428356), wk =   0.0020000
        k(  912) = (  -0.0707107  -0.0707107   0.2142534), wk =   0.0020000
        k(  913) = (  -0.1428499   0.0014285   0.2856711), wk =   0.0020000
        k(  914) = (  -0.2149890   0.0735677   0.3570889), wk =   0.0020000
        k(  915) = (  -0.2871282   0.1457069   0.4285067), wk =   0.0020000
        k(  916) = (   0.3621244  -0.5035457  -0.2142534), wk =   0.0020000
        k(  917) = (   0.2899852  -0.4314066  -0.1428356), wk =   0.0020000
        k(  918) = (   0.2178460  -0.3592674  -0.0714178), wk =   0.0020000
        k(  919) = (   0.1457069  -0.2871282   0.0000000), wk =   0.0020000
        k(  920) = (   0.0735677  -0.2149890   0.0714178), wk =   0.0020000
        k(  921) = (   0.0735677  -0.2149890   0.2142534), wk =   0.0020000
        k(  922) = (   0.0014285  -0.1428499   0.2856711), wk =   0.0020000
        k(  923) = (  -0.0707107  -0.0707107   0.3570889), wk =   0.0020000
        k(  924) = (  -0.1428499   0.0014285   0.4285067), wk =   0.0020000
        k(  925) = (  -0.2149890   0.0735677   0.4999245), wk =   0.0020000
        k(  926) = (   0.4342636  -0.5756849  -0.1428356), wk =   0.0020000
        k(  927) = (   0.3621244  -0.5035457  -0.0714178), wk =   0.0020000
        k(  928) = (   0.2899852  -0.4314066   0.0000000), wk =   0.0020000
        k(  929) = (   0.2178460  -0.3592674   0.0714178), wk =   0.0020000
        k(  930) = (   0.1457069  -0.2871282   0.1428356), wk =   0.0020000
        k(  931) = (   0.1457069  -0.2871282   0.2856711), wk =   0.0020000
        k(  932) = (   0.0735677  -0.2149890   0.3570889), wk =   0.0020000
        k(  933) = (   0.0014285  -0.1428499   0.4285067), wk =   0.0020000
        k(  934) = (  -0.0707107  -0.0707107   0.4999245), wk =   0.0020000
        k(  935) = (  -0.1428499   0.0014285   0.5713423), wk =   0.0020000
        k(  936) = (   0.5064027  -0.6478241  -0.0714178), wk =   0.0020000
        k(  937) = (   0.4342636  -0.5756849   0.0000000), wk =   0.0020000
        k(  938) = (   0.3621244  -0.5035457   0.0714178), wk =   0.0020000
        k(  939) = (   0.2899852  -0.4314066   0.1428356), wk =   0.0020000
        k(  940) = (   0.2178460  -0.3592674   0.2142534), wk =   0.0020000
        k(  941) = (   0.2178460  -0.3592674   0.3570889), wk =   0.0020000
        k(  942) = (   0.1457069  -0.2871282   0.4285067), wk =   0.0020000
        k(  943) = (   0.0735677  -0.2149890   0.4999245), wk =   0.0020000
        k(  944) = (   0.0014285  -0.1428499   0.5713423), wk =   0.0020000
        k(  945) = (  -0.0707107  -0.0707107   0.6427601), wk =   0.0020000
        k(  946) = (   0.5785419  -0.7199633   0.0000000), wk =   0.0020000
        k(  947) = (   0.5064027  -0.6478241   0.0714178), wk =   0.0020000
        k(  948) = (   0.4342636  -0.5756849   0.1428356), wk =   0.0020000
        k(  949) = (   0.3621244  -0.5035457   0.2142534), wk =   0.0020000
        k(  950) = (   0.2899852  -0.4314066   0.2856711), wk =   0.0020000
        k(  951) = (  -0.4314066   0.2899852  -0.2856711), wk =   0.0020000
        k(  952) = (  -0.5035457   0.3621244  -0.2142534), wk =   0.0020000
        k(  953) = (  -0.5756849   0.4342636  -0.1428356), wk =   0.0020000
        k(  954) = (  -0.6478241   0.5064027  -0.0714178), wk =   0.0020000
        k(  955) = (  -0.7199633   0.5785419   0.0000000), wk =   0.0020000
        k(  956) = (  -0.0707107  -0.0707107  -0.6427601), wk =   0.0020000
        k(  957) = (  -0.1428499   0.0014285  -0.5713423), wk =   0.0020000
        k(  958) = (  -0.2149890   0.0735677  -0.4999245), wk =   0.0020000
        k(  959) = (  -0.2871282   0.1457069  -0.4285067), wk =   0.0020000
        k(  960) = (  -0.3592674   0.2178460  -0.3570889), wk =   0.0020000
        k(  961) = (  -0.3592674   0.2178460  -0.2142534), wk =   0.0020000
        k(  962) = (  -0.4314066   0.2899852  -0.1428356), wk =   0.0020000
        k(  963) = (  -0.5035457   0.3621244  -0.0714178), wk =   0.0020000
        k(  964) = (  -0.5756849   0.4342636  -0.0000000), wk =   0.0020000
        k(  965) = (  -0.6478241   0.5064027   0.0714178), wk =   0.0020000
        k(  966) = (   0.0014285  -0.1428499  -0.5713423), wk =   0.0020000
        k(  967) = (  -0.0707107  -0.0707107  -0.4999245), wk =   0.0020000
        k(  968) = (  -0.1428499   0.0014285  -0.4285067), wk =   0.0020000
        k(  969) = (  -0.2149890   0.0735677  -0.3570889), wk =   0.0020000
[...]
     8.1427   9.5287  10.9111  12.7639  13.1237  15.7226  17.6309  18.2968
    19.4316  21.0340  21.2943  22.3930  23.1582  24.5796  25.9676  28.4718
    29.3232  29.5203  31.5681  32.6038  33.3338  33.8391  34.8832  35.6551
    36.7390

     occupation numbers 
     1.0000   1.0000   1.0000   1.0000   1.0000   1.0000   1.0000   1.0000
     0.0000   0.0000   0.0000   0.0000   0.0000   0.0000   0.0000   0.0000
     0.0000   0.0000   0.0000   0.0000   0.0000   0.0000   0.0000   0.0000
     0.0000   0.0000   0.0000   0.0000   0.0000   0.0000   0.0000   0.0000
     0.0000

          k =-0.0707-0.0707-0.3571 (  1539 PWs)   bands (ev):

   -70.4208 -37.3865 -37.3855 -37.3854  -7.8419   1.0541   2.3690   2.4872
     8.1889   9.5767  10.9019  12.2301  12.7163  14.8360  17.1874  18.7280
    19.4910  20.2414  21.6798  21.8285  24.1120  24.6747  25.6760  27.3502
    30.1985  31.1212  31.1876  33.2092  34.1396  34.2513  35.7347  35.9370
    37.5861

     occupation numbers 
     1.0000   1.0000   1.0000   1.0000   1.0000   1.0000   1.0000   1.0000
     0.0000   0.0000   0.0000   0.0000   0.0000   0.0000   0.0000   0.0000
     0.0000   0.0000   0.0000   0.0000   0.0000   0.0000   0.0000   0.0000
     0.0000   0.0000   0.0000   0.0000   0.0000   0.0000   0.0000   0.0000
     0.0000

          k =-0.1428 0.0014-0.2857 (  1546 PWs)   bands (ev):

   -70.4208 -37.3862 -37.3854 -37.3852  -7.9453   1.2945   2.4061   2.7536
     8.2212   9.9935  10.8247  11.7455  12.2693  14.3794  16.8956  17.7022
    19.6398  20.1868  21.3965  23.3030  24.4414  24.8417  26.1605  26.6482
    29.4085  31.1987  32.2233  33.4957  34.3894  35.0029  36.1478  36.8172
    37.6155

     occupation numbers 
     1.0000   1.0000   1.0000   1.0000   1.0000   1.0000   1.0000   1.0000
     0.0000   0.0000   0.0000   0.0000   0.0000   0.0000   0.0000   0.0000
     0.0000   0.0000   0.0000   0.0000   0.0000   0.0000   0.0000   0.0000
     0.0000   0.0000   0.0000   0.0000   0.0000   0.0000   0.0000   0.0000
     0.0000

          k =-0.2150 0.0736-0.2143 (  1548 PWs)   bands (ev):

   -70.4208 -37.3862 -37.3854 -37.3851  -7.9607   1.2232   2.4924   2.8837
     8.0756  10.4602  10.9186  11.2376  12.4440  14.0372  15.8670  18.3705
    19.7311  20.6594  21.2785  23.3784  24.1265  24.7230  26.2791  27.5231
    29.5802  30.5965  32.3818  33.6627  34.0450  34.9572  35.6040  37.4533
    37.5297

     occupation numbers 
     1.0000   1.0000   1.0000   1.0000   1.0000   1.0000   1.0000   1.0000
     0.0000   0.0000   0.0000   0.0000   0.0000   0.0000   0.0000   0.0000
     0.0000   0.0000   0.0000   0.0000   0.0000   0.0000   0.0000   0.0000
     0.0000   0.0000   0.0000   0.0000   0.0000   0.0000   0.0000   0.0000
     0.0000

          k =-0.2150 0.0736-0.0714 (  1538 PWs)   bands (ev):

   -70.4208 -37.3857 -37.3852 -37.3852  -8.0871   1.8053   2.7367   2.7886
     7.6112  10.2353  11.1794  11.4159  12.2253  13.8505  16.2339  18.0150
    18.3607  18.9740  22.8575  23.6815  24.0249  25.6346  26.6874  26.9537
    30.0368  30.2217  31.2401  34.7632  34.9664  35.7998  36.1342  37.4142
    37.8000

     occupation numbers 
     1.0000   1.0000   1.0000   1.0000   1.0000   1.0000   1.0000   1.0000
     0.0000   0.0000   0.0000   0.0000   0.0000   0.0000   0.0000   0.0000
     0.0000   0.0000   0.0000   0.0000   0.0000   0.0000   0.0000   0.0000
     0.0000   0.0000   0.0000   0.0000   0.0000   0.0000   0.0000   0.0000
     0.0000

          k =-0.2871 0.1457 0.0000 (  1545 PWs)   bands (ev):

   -70.4208 -37.3862 -37.3854 -37.3853  -7.9362   1.2879   2.4206   2.7359
     8.1852   9.9806  10.8221  11.6767  12.2483  14.3852  16.8887  17.6831
    19.8058  20.2691  21.6700  23.2933  24.4798  24.8597  26.0658  26.4329
    29.3750  31.1610  32.2040  33.5730  34.5583  35.0174  35.8980  36.7452
    37.7218

     occupation numbers 
     1.0000   1.0000   1.0000   1.0000   1.0000   1.0000   1.0000   1.0000
     0.0000   0.0000   0.0000   0.0000   0.0000   0.0000   0.0000   0.0000
     0.0000   0.0000   0.0000   0.0000   0.0000   0.0000   0.0000   0.0000
     0.0000   0.0000   0.0000   0.0000   0.0000   0.0000   0.0000   0.0000
     0.0000

          k =-0.3593 0.2178 0.0714 (  1550 PWs)   bands (ev):

   -70.4208 -37.3869 -37.3857 -37.3854  -7.7373   0.6810   2.1389   2.6221
     8.6428   9.9033  10.5164  11.6191  12.8953  15.5534  16.6259  18.3981
    19.7823  20.8699  21.9377  22.8432  23.6393  25.2402  26.1187  27.4663
    29.1501  30.3241  31.8975  32.8906  33.4101  34.1466  35.2214  36.1855
    36.4766

     occupation numbers 
     1.0000   1.0000   1.0000   1.0000   1.0000   1.0000   1.0000   1.0000
     0.0000   0.0000   0.0000   0.0000   0.0000   0.0000   0.0000   0.0000
     0.0000   0.0000   0.0000   0.0000   0.0000   0.0000   0.0000   0.0000
     0.0000   0.0000   0.0000   0.0000   0.0000   0.0000   0.0000   0.0000
     0.0000

          k =-0.4314 0.2900 0.1428 (  1551 PWs)   bands (ev):

   -70.4207 -37.3874 -37.3858 -37.3855  -7.5642   0.2085   1.9765   2.4899
     8.7898   9.4977  11.2254  11.3912  13.9718  16.2109  16.8554  17.3913
    19.1470  21.2457  21.7562  24.0491  24.1414  26.0174  26.4295  27.9118
    29.0191  29.7173  30.4757  31.6439  33.0413  33.6109  34.3977  35.2817
    35.9370

     occupation numbers 
     1.0000   1.0000   1.0000   1.0000   1.0000   1.0000   1.0000   1.0000
     0.0000   0.0000   0.0000   0.0000   0.0000   0.0000   0.0000   0.0000
     0.0000   0.0000   0.0000   0.0000   0.0000   0.0000   0.0000   0.0000
     0.0000   0.0000   0.0000   0.0000   0.0000   0.0000   0.0000   0.0000
     0.0000

          k =-0.5035 0.3621 0.2143 (  1556 PWs)   bands (ev):

   -70.4207 -37.3875 -37.3859 -37.3856  -7.4969   0.0382   1.9180   2.4322
     8.8356   9.3040  11.2519  11.8551  14.7516  15.5594  16.9324  17.3075
    18.9900  20.1778  23.3548  23.6948  25.3425  26.0783  26.9315  27.4224
    28.7377  28.8380  30.7217  31.7235  32.4808  33.5637  34.0068  34.3474
    35.8186

     occupation numbers 
     1.0000   1.0000   1.0000   1.0000   1.0000   1.0000   1.0000   1.0000
     0.0000   0.0000   0.0000   0.0000   0.0000   0.0000   0.0000   0.0000
     0.0000   0.0000   0.0000   0.0000   0.0000   0.0000   0.0000   0.0000
     0.0000   0.0000   0.0000   0.0000   0.0000   0.0000   0.0000   0.0000
     0.0000

          k = 0.1457-0.2871-0.4285 (  1552 PWs)   bands (ev):

   -70.4207 -37.3873 -37.3859 -37.3855  -7.5710   0.2296   1.9540   2.4903
     8.7641   9.5491  11.2695  11.4800  14.0368  16.1561  16.6184  17.2682
    19.0967  21.4875  21.8922  23.9069  24.1182  25.9739  26.4934  27.7676
    29.0050  29.6528  30.5579  31.6275  32.9568  33.7789  34.2412  35.3324
    36.1206

     occupation numbers 
     1.0000   1.0000   1.0000   1.0000   1.0000   1.0000   1.0000   1.0000
     0.0000   0.0000   0.0000   0.0000   0.0000   0.0000   0.0000   0.0000
     0.0000   0.0000   0.0000   0.0000   0.0000   0.0000   0.0000   0.0000
     0.0000   0.0000   0.0000   0.0000   0.0000   0.0000   0.0000   0.0000
     0.0000

          k = 0.0736-0.2150-0.3571 (  1559 PWs)   bands (ev):

   -70.4208 -37.3868 -37.3857 -37.3854  -7.7473   0.7086   2.1080   2.6271
     8.6414   9.9831  10.5709  11.6477  12.9647  15.4444  16.5809  18.2478
    19.7038  20.8154  21.9233  22.7188  23.8673  25.2617  26.2096  27.4082
    29.0743  30.2289  31.8922  32.8360  33.4661  34.0826  35.3045  36.1829
    36.7438

     occupation numbers 
     1.0000   1.0000   1.0000   1.0000   1.0000   1.0000   1.0000   1.0000
     0.0000   0.0000   0.0000   0.0000   0.0000   0.0000   0.0000   0.0000
     0.0000   0.0000   0.0000   0.0000   0.0000   0.0000   0.0000   0.0000
     0.0000   0.0000   0.0000   0.0000   0.0000   0.0000   0.0000   0.0000
     0.0000

          k = 0.0014-0.1428-0.2857 (  1546 PWs)   bands (ev):

   -70.4208 -37.3862 -37.3854 -37.3852  -7.9453   1.2945   2.4061   2.7536
     8.2212   9.9935  10.8247  11.7455  12.2693  14.3794  16.8956  17.7022
    19.6398  20.1868  21.3965  23.3030  24.4414  24.8417  26.1605  26.6482
    29.4085  31.1987  32.2233  33.4957  34.3894  35.0029  36.1478  36.8172
    37.6155

     occupation numbers 
     1.0000   1.0000   1.0000   1.0000   1.0000   1.0000   1.0000   1.0000
     0.0000   0.0000   0.0000   0.0000   0.0000   0.0000   0.0000   0.0000
     0.0000   0.0000   0.0000   0.0000   0.0000   0.0000   0.0000   0.0000
     0.0000   0.0000   0.0000   0.0000   0.0000   0.0000   0.0000   0.0000
     0.0000

          k =-0.0707-0.0707-0.2143 (  1533 PWs)   bands (ev):

   -70.4208 -37.3858 -37.3852 -37.3851  -8.0923   1.7815   2.7771   2.7858
     7.6319  10.2047  11.1348  11.5027  12.2323  13.9098  16.2690  18.0218
    18.2764  18.8800  22.8078  23.6492  23.8076  25.4830  26.8805  27.0642
    30.1471  30.6287  31.0212  34.7090  35.1076  35.7754  35.8239  37.4806
    37.9462

     occupation numbers 
     1.0000   1.0000   1.0000   1.0000   1.0000   1.0000   1.0000   1.0000
     0.0000   0.0000   0.0000   0.0000   0.0000   0.0000   0.0000   0.0000
     0.0000   0.0000   0.0000   0.0000   0.0000   0.0000   0.0000   0.0000
     0.0000   0.0000   0.0000   0.0000   0.0000   0.0000   0.0000   0.0000
     0.0000

          k =-0.1428 0.0014-0.1428 (  1535 PWs)   bands (ev):

   -70.4208 -37.3856 -37.3852 -37.3850  -8.1442   2.0069   2.7335   2.9643
     7.3624  10.4848  11.0706  11.2222  12.6170  13.5343  16.4006  17.1225
    18.1821  18.8862  22.1428  23.6931  25.1691  25.9238  26.5801  27.8278
    29.5301  30.2440  31.0638  34.5130  35.2235  35.4427  36.2679  37.8797
    38.2410

     occupation numbers 
     1.0000   1.0000   1.0000   1.0000   1.0000   1.0000   1.0000   1.0000
     0.0000   0.0000   0.0000   0.0000   0.0000   0.0000   0.0000   0.0000
     0.0000   0.0000   0.0000   0.0000   0.0000   0.0000   0.0000   0.0000
     0.0000   0.0000   0.0000   0.0000   0.0000   0.0000   0.0000   0.0000
     0.0000

          k =-0.1428 0.0014 0.0000 (  1519 PWs)   bands (ev):

   -70.4208 -37.3852 -37.3851 -37.3850  -8.2172   2.5015   2.8690   2.8724
     6.9397  10.4597  11.1294  11.1450  12.6716  13.8803  16.9610  17.0757
    17.1041  17.5899  21.4328  25.3327  25.4213  26.7499  27.3422  27.4058
    29.7340  29.8235  30.1349  34.5193  34.6964  35.2255  37.6220  37.9912
    38.1936

     occupation numbers 
     1.0000   1.0000   1.0000   1.0000   1.0000   1.0000   1.0000   1.0000
     0.0000   0.0000   0.0000   0.0000   0.0000   0.0000   0.0000   0.0000
     0.0000   0.0000   0.0000   0.0000   0.0000   0.0000   0.0000   0.0000
     0.0000   0.0000   0.0000   0.0000   0.0000   0.0000   0.0000   0.0000
     0.0000

          k =-0.2150 0.0736 0.0714 (  1538 PWs)   bands (ev):

   -70.4208 -37.3857 -37.3852 -37.3852  -8.0871   1.8053   2.7367   2.7886
     7.6112  10.2353  11.1794  11.4159  12.2253  13.8505  16.2339  18.0150
    18.3607  18.9740  22.8575  23.6815  24.0249  25.6346  26.6874  26.9537
    30.0368  30.2217  31.2401  34.7632  34.9664  35.7998  36.1342  37.4142
    37.8000

     occupation numbers 
     1.0000   1.0000   1.0000   1.0000   1.0000   1.0000   1.0000   1.0000
     0.0000   0.0000   0.0000   0.0000   0.0000   0.0000   0.0000   0.0000
     0.0000   0.0000   0.0000   0.0000   0.0000   0.0000   0.0000   0.0000
     0.0000   0.0000   0.0000   0.0000   0.0000   0.0000   0.0000   0.0000
     0.0000

          k =-0.2871 0.1457 0.1428 (  1552 PWs)   bands (ev):

   -70.4208 -37.3865 -37.3854 -37.3853  -7.8837   0.9463   2.6179   2.6655
     8.1557  10.2829  10.7552  11.3645  12.9210  14.2771  15.6166  19.4810
    19.7482  20.8851  21.6636  21.9206  23.6724  25.4987  26.6987  26.9783
    30.0967  30.3219  32.0341  33.1425  34.3284  34.7551  35.0565  37.0660
    37.2264

     occupation numbers 
     1.0000   1.0000   1.0000   1.0000   1.0000   1.0000   1.0000   1.0000
     0.0000   0.0000   0.0000   0.0000   0.0000   0.0000   0.0000   0.0000
     0.0000   0.0000   0.0000   0.0000   0.0000   0.0000   0.0000   0.0000
     0.0000   0.0000   0.0000   0.0000   0.0000   0.0000   0.0000   0.0000
     0.0000

          k =-0.3593 0.2178 0.2143 (  1548 PWs)   bands (ev):

   -70.4208 -37.3873 -37.3855 -37.3854  -7.6760   0.2544   2.5057   2.5553
     8.2998  10.0314  11.0374  11.2205  13.9074  15.3662  15.6945  18.7104
    19.0498  21.1191  22.2724  22.5846  23.7619  26.6673  27.2091  27.8187
    29.5626  29.9188  30.1200  32.4556  33.3543  33.6693  34.6501  35.9049
    36.5328

     occupation numbers 
     1.0000   1.0000   1.0000   1.0000   1.0000   1.0000   1.0000   1.0000
     0.0000   0.0000   0.0000   0.0000   0.0000   0.0000   0.0000   0.0000
     0.0000   0.0000   0.0000   0.0000   0.0000   0.0000   0.0000   0.0000
     0.0000   0.0000   0.0000   0.0000   0.0000   0.0000   0.0000   0.0000
     0.0000

          k =-0.4314 0.2900 0.2857 (  1552 PWs)   bands (ev):

   -70.4207 -37.3877 -37.3856 -37.3855  -7.5541  -0.0970   2.3752   2.5617
     8.3140   9.8372  10.7951  11.7577  14.8874  16.0945  16.4182  17.5182
    17.7408  19.4775  24.1162  24.4757  25.1355  26.3960  27.5234  27.8553
    28.7180  28.7712  30.1324  32.0793  32.3268  33.2862  34.3827  34.9478
    36.1626

     occupation numbers 
     1.0000   1.0000   1.0000   1.0000   1.0000   1.0000   1.0000   1.0000
     0.0000   0.0000   0.0000   0.0000   0.0000   0.0000   0.0000   0.0000
     0.0000   0.0000   0.0000   0.0000   0.0000   0.0000   0.0000   0.0000
     0.0000   0.0000   0.0000   0.0000   0.0000   0.0000   0.0000   0.0000
     0.0000

          k = 0.2178-0.3593-0.3571 (  1550 PWs)   bands (ev):

   -70.4207 -37.3876 -37.3856 -37.3854  -7.5823  -0.0170   2.3157   2.6373
     8.3522   9.9298  10.7532  11.7040  14.7144  15.5167  16.5269  16.9798
    19.1913  19.5396  23.0062  24.6445  24.7261  26.8065  27.4027  27.8916
    28.8949  29.1521  29.8938  31.9454  32.2404  33.8384  34.6148  34.9943
    36.3254

     occupation numbers 
     1.0000   1.0000   1.0000   1.0000   1.0000   1.0000   1.0000   1.0000
     0.0000   0.0000   0.0000   0.0000   0.0000   0.0000   0.0000   0.0000
     0.0000   0.0000   0.0000   0.0000   0.0000   0.0000   0.0000   0.0000
     0.0000   0.0000   0.0000   0.0000   0.0000   0.0000   0.0000   0.0000
     0.0000

          k = 0.1457-0.2871-0.2857 (  1549 PWs)   bands (ev):

   -70.4208 -37.3870 -37.3856 -37.3853  -7.7447   0.4689   2.3524   2.7582
     8.3624  10.2816  10.9380  11.1304  13.3306  15.0515  15.6192  18.4634
    20.5425  21.0759  21.2928  22.8335  23.2728  26.4740  26.6865  27.7758
    29.3416  30.4650  30.9766  32.4858  33.2670  33.9325  35.5130  35.8307
    36.3905

     occupation numbers 
     1.0000   1.0000   1.0000   1.0000   1.0000   1.0000   1.0000   1.0000
     0.0000   0.0000   0.0000   0.0000   0.0000   0.0000   0.0000   0.0000
     0.0000   0.0000   0.0000   0.0000   0.0000   0.0000   0.0000   0.0000
     0.0000   0.0000   0.0000   0.0000   0.0000   0.0000   0.0000   0.0000
     0.0000

          k = 0.0736-0.2150-0.2143 (  1548 PWs)   bands (ev):

   -70.4208 -37.3862 -37.3854 -37.3851  -7.9607   1.2232   2.4924   2.8837
     8.0756  10.4602  10.9186  11.2376  12.4440  14.0372  15.8670  18.3705
    19.7311  20.6594  21.2785  23.3784  24.1265  24.7230  26.2791  27.5231
    29.5802  30.5965  32.3818  33.6627  34.0450  34.9572  35.6040  37.4533
    37.5297

     occupation numbers 
     1.0000   1.0000   1.0000   1.0000   1.0000   1.0000   1.0000   1.0000
     0.0000   0.0000   0.0000   0.0000   0.0000   0.0000   0.0000   0.0000
     0.0000   0.0000   0.0000   0.0000   0.0000   0.0000   0.0000   0.0000
     0.0000   0.0000   0.0000   0.0000   0.0000   0.0000   0.0000   0.0000
     0.0000

          k = 0.0014-0.1428-0.1428 (  1535 PWs)   bands (ev):

   -70.4208 -37.3856 -37.3852 -37.3850  -8.1442   2.0069   2.7335   2.9643
     7.3624  10.4848  11.0706  11.2222  12.6170  13.5343  16.4006  17.1225
    18.1821  18.8862  22.1428  23.6931  25.1691  25.9238  26.5801  27.8278
    29.5301  30.2440  31.0638  34.5130  35.2235  35.4427  36.2679  37.8797
    38.2410

     occupation numbers 
     1.0000   1.0000   1.0000   1.0000   1.0000   1.0000   1.0000   1.0000
     0.0000   0.0000   0.0000   0.0000   0.0000   0.0000   0.0000   0.0000
     0.0000   0.0000   0.0000   0.0000   0.0000   0.0000   0.0000   0.0000
     0.0000   0.0000   0.0000   0.0000   0.0000   0.0000   0.0000   0.0000
     0.0000

          k =-0.0707-0.0707-0.0714 (  1514 PWs)   bands (ev):

   -70.4208 -37.3853 -37.3850 -37.3849  -8.2380   2.4885   2.9488   2.9896
     6.7865  10.6258  10.9303  11.1052  13.3710  13.4014  16.1527  17.2131
    17.4864  17.5365  21.0295  25.5424  25.8675  25.9877  28.0956  28.2991
    29.3979  29.7752  29.7767  34.2717  34.5192  34.9054  37.2049  38.5555
    38.8630

     occupation numbers 
     1.0000   1.0000   1.0000   1.0000   1.0000   1.0000   1.0000   1.0000
     0.0000   0.0000   0.0000   0.0000   0.0000   0.0000   0.0000   0.0000
     0.0000   0.0000   0.0000   0.0000   0.0000   0.0000   0.0000   0.0000
     0.0000   0.0000   0.0000   0.0000   0.0000   0.0000   0.0000   0.0000
     0.0000

     the Fermi energy is     4.9259 ev

     Writing output data file /wrk/kfg/julia_data/MgS/znse.in_vnscf_shear_1/qe.nscf.save/
 
     init_run     :      0.22s CPU      0.27s WALL (       1 calls)
     electrons    :    240.18s CPU    248.80s WALL (       1 calls)

     Called by init_run:
     wfcinit      :      0.00s CPU      0.00s WALL (       1 calls)
     wfcinit:atom :      0.06s CPU      0.06s WALL (    1000 calls)
     wfcinit:wfcr :      8.61s CPU      9.10s WALL (    1000 calls)
     potinit      :      0.01s CPU      0.01s WALL (       1 calls)
     hinit0       :      0.18s CPU      0.20s WALL (       1 calls)

     Called by electrons:
     c_bands      :    240.17s CPU    248.71s WALL (       1 calls)
     v_of_rho     :      0.01s CPU      0.01s WALL (       1 calls)
     v_h          :      0.00s CPU      0.00s WALL (       1 calls)
     v_xc         :      0.00s CPU      0.01s WALL (       1 calls)
     newd         :      0.02s CPU      0.02s WALL (       1 calls)

     Called by c_bands:
     init_us_2    :      0.12s CPU      0.14s WALL (    1000 calls)
     cegterg      :    230.36s CPU    238.31s WALL (    1017 calls)

     Called by sum_band:

     Called by *egterg:
     h_psi        :     84.55s CPU     89.63s WALL (   20092 calls)
     s_psi        :      2.03s CPU      2.13s WALL (   20092 calls)
     g_psi        :      0.85s CPU      0.87s WALL (   18075 calls)
     cdiaghg      :    122.53s CPU    124.61s WALL (   19075 calls)
     cegterg:over :     13.46s CPU     14.14s WALL (   18075 calls)
     cegterg:upda :      7.37s CPU      7.61s WALL (   18075 calls)
     cegterg:last :      5.68s CPU      5.90s WALL (    4024 calls)
     cdiaghg:chol :      4.97s CPU      5.10s WALL (   19075 calls)
     cdiaghg:inve :      1.35s CPU      1.39s WALL (   19075 calls)
     cdiaghg:para :     14.80s CPU     15.82s WALL (   38150 calls)

     Called by h_psi:
     h_psi:calbec :      3.16s CPU      3.33s WALL (   20092 calls)
     vloc_psi     :     79.04s CPU     83.83s WALL (   20092 calls)
     add_vuspsi   :      2.07s CPU      2.18s WALL (   20092 calls)

     General routines
     calbec       :      3.08s CPU      3.27s WALL (   20092 calls)
     fft          :      0.01s CPU      0.01s WALL (      13 calls)
     ffts         :      0.00s CPU      0.00s WALL (       1 calls)
     fftw         :     71.65s CPU     76.10s WALL (  878544 calls)
     interpolate  :      0.00s CPU      0.00s WALL (       1 calls)
 
     Parallel routines
     fft_scatt_xy :      8.88s CPU      9.33s WALL (  878558 calls)
     fft_scatt_yz :     26.12s CPU     27.96s WALL (  878558 calls)
 
     PWSCF        :   4m 2.65s CPU   4m16.08s WALL

 
   This run was terminated on:  20: 4:27  16Apr2020            

=------------------------------------------------------------------------------=
   JOB DONE.
=------------------------------------------------------------------------------=
