
     Program PWSCF v.6.5 starts on 16Apr2020 at 21:36:17 

     This program is part of the open-source Quantum ESPRESSO suite
     for quantum simulation of materials; please cite
         "P. Giannozzi et al., J. Phys.:Condens. Matter 21 395502 (2009);
         "P. Giannozzi et al., J. Phys.:Condens. Matter 29 465901 (2017);
          URL http://www.quantum-espresso.org", 
     in publications or presentations arising from this work. More details at
     http://www.quantum-espresso.org/quote

     Parallel version (MPI), running on     8 processors

     MPI processes distributed on     1 nodes
     R & G space division:  proc/nbgrp/npool/nimage =       8
     Reading input from /wrk/kfg/julia_data/MgS/dimer.in_vnscf_coords_6/qe.nscf.in
Warning: card &IONS ignored
Warning: card   ION_DYNAMICS='BFGS', ignored
Warning: card / ignored
Warning: card &CELL ignored
Warning: card  CELL_DYNAMICS = 'BFGS' ignored
Warning: card  CELL_DOFREE = 'ALL' ignored
Warning: card  CELL_FACTOR = 1.0 ignored
Warning: card / ignored
     Message from routine read_cards :
     DEPRECATED: no units specified in CELL_PARAMETERS card

     Current dimensions of program PWSCF are:
     Max number of different atomic species (ntypx) = 10
     Max number of k-points (npk) =  40000
     Max angular momentum in pseudopotentials (lmaxx) =  3

     Atomic positions and unit cell read from directory:
     /wrk/kfg/julia_data/MgS/dimer.in_vnscf_coords_6/qe.nscf.save/                                                                                                                                                                                                   
 
               file mg.pbesol.UPF: wavefunction(s)  3P renormalized

     Subspace diagonalization in iterative solution of the eigenvalue problem:
     one sub-group per band group will be used
     scalapack distributed-memory algorithm (size of sub-group:  2*  2 procs)

 
     Parallelization info
     --------------------
     sticks:   dense  smooth     PW     G-vecs:    dense   smooth      PW
     Min         487     350     97                32720    19990    2917
     Max         490     351     98                32721    19993    2920
     Sum        3909    2801    777               261761   159925   23349
 


     bravais-lattice index     =            0
     lattice parameter (alat)  =      14.0000  a.u.
     unit-cell volume          =    3920.0000 (a.u.)^3
     number of atoms/cell      =            2
     number of atomic types    =            2
     number of electrons       =        16.00
     number of Kohn-Sham states=           33
     kinetic-energy cutoff     =      45.0000  Ry
     charge density cutoff     =     250.0000  Ry
     Exchange-correlation= SLA  PW   PSX  PSC
                           (   1   4  10   8   0   0   0)
     A smooth kinetic-energy cutoff is imposed at      44.5000 Ry
     height of the smooth step-function =             800.0000 Ry
     width of the smooth step-function  =               1.0000 Ry


     celldm(1)=  14.000000  celldm(2)=   0.000000  celldm(3)=   0.000000
     celldm(4)=   0.000000  celldm(5)=   0.000000  celldm(6)=   0.000000

     crystal axes: (cart. coord. in units of alat)
               a(1) = (   1.000000   0.000000   0.000000 )  
               a(2) = (   0.000000   1.000000   0.000000 )  
               a(3) = (   0.000000   0.000000   1.428571 )  

     reciprocal axes: (cart. coord. in units 2 pi/alat)
               b(1) = (  1.000000  0.000000  0.000000 )  
               b(2) = (  0.000000  1.000000  0.000000 )  
               b(3) = (  0.000000  0.000000  0.700000 )  


     PseudoPot. # 1 for Mg read from file:
     /home/kfg/psuedo/gbrv_1.5/mg.pbesol.UPF
     MD5 check sum: cbba17e5274afd115179030b10be074e
     Pseudo is Ultrasoft, Zval = 10.0
     Generated by new atomic code, or converted to UPF format
     Using radial grid of  821 points,  7 beta functions with: 
                l(1) =   0
                l(2) =   0
                l(3) =   0
                l(4) =   1
                l(5) =   1
                l(6) =   2
                l(7) =   2
     Q(r) pseudized with  8 coefficients,  rinner =    1.200   1.200   1.200
                                                       1.200   1.200

     PseudoPot. # 2 for S  read from file:
     /home/kfg/psuedo/gbrv_1.5/s.pbesol.UPF
     MD5 check sum: 0ccfa86ec6eb59065d10aaae963ef2a7
     Pseudo is Ultrasoft + core correction, Zval =  6.0
     Generated by new atomic code, or converted to UPF format
     Using radial grid of  907 points,  6 beta functions with: 
                l(1) =   0
                l(2) =   0
                l(3) =   1
                l(4) =   1
                l(5) =   2
                l(6) =   2
     Q(r) pseudized with  8 coefficients,  rinner =    1.300   1.300   1.300
                                                       1.300   1.300

     atomic species   valence    mass     pseudopotential
        Mg            10.00    24.31000     Mg( 1.00)
        S              6.00    32.06000     S ( 1.00)

     No symmetry found


                                    s                        frac. trans.

      isym =  1     identity                                     

 cryst.   s( 1) = (     1          0          0      )
                  (     0          1          0      )
                  (     0          0          1      )

 cart.    s( 1) = (  1.0000000  0.0000000  0.0000000 )
                  (  0.0000000  1.0000000  0.0000000 )
                  (  0.0000000  0.0000000  1.0000000 )


   Cartesian axes

     site n.     atom                  positions (alat units)
         1           Mg  tau(   1) = (   0.0000000   0.0000000  -0.1487427  )
         2           S   tau(   2) = (   0.0000000   0.0000000   0.1487427  )

   Crystallographic axes

     site n.     atom                  positions (cryst. coord.)
         1           Mg  tau(   1) = (  0.0000000  0.0000000 -0.1041199  )
         2           S   tau(   2) = (  0.0000000  0.0000000  0.1041199  )

     number of k points=    64  Gaussian smearing, width (Ry)=  0.0100
                       cart. coord. in units 2pi/alat
        k(    1) = (   0.0000000   0.0000000   0.0000000), wk =   0.0312500
        k(    2) = (   0.0000000   0.0000000   0.1750000), wk =   0.0312500
        k(    3) = (   0.0000000   0.0000000  -0.3500000), wk =   0.0312500
        k(    4) = (   0.0000000   0.0000000  -0.1750000), wk =   0.0312500
        k(    5) = (   0.0000000   0.2500000   0.0000000), wk =   0.0312500
        k(    6) = (   0.0000000   0.2500000   0.1750000), wk =   0.0312500
        k(    7) = (   0.0000000   0.2500000  -0.3500000), wk =   0.0312500
        k(    8) = (   0.0000000   0.2500000  -0.1750000), wk =   0.0312500
        k(    9) = (   0.0000000  -0.5000000   0.0000000), wk =   0.0312500
        k(   10) = (   0.0000000  -0.5000000   0.1750000), wk =   0.0312500
        k(   11) = (   0.0000000  -0.5000000  -0.3500000), wk =   0.0312500
        k(   12) = (   0.0000000  -0.5000000  -0.1750000), wk =   0.0312500
        k(   13) = (   0.0000000  -0.2500000   0.0000000), wk =   0.0312500
        k(   14) = (   0.0000000  -0.2500000   0.1750000), wk =   0.0312500
        k(   15) = (   0.0000000  -0.2500000  -0.3500000), wk =   0.0312500
        k(   16) = (   0.0000000  -0.2500000  -0.1750000), wk =   0.0312500
        k(   17) = (   0.2500000   0.0000000   0.0000000), wk =   0.0312500
        k(   18) = (   0.2500000   0.0000000   0.1750000), wk =   0.0312500
        k(   19) = (   0.2500000   0.0000000  -0.3500000), wk =   0.0312500
        k(   20) = (   0.2500000   0.0000000  -0.1750000), wk =   0.0312500
        k(   21) = (   0.2500000   0.2500000   0.0000000), wk =   0.0312500
        k(   22) = (   0.2500000   0.2500000   0.1750000), wk =   0.0312500
        k(   23) = (   0.2500000   0.2500000  -0.3500000), wk =   0.0312500
        k(   24) = (   0.2500000   0.2500000  -0.1750000), wk =   0.0312500
        k(   25) = (   0.2500000  -0.5000000   0.0000000), wk =   0.0312500
        k(   26) = (   0.2500000  -0.5000000   0.1750000), wk =   0.0312500
        k(   27) = (   0.2500000  -0.5000000  -0.3500000), wk =   0.0312500
        k(   28) = (   0.2500000  -0.5000000  -0.1750000), wk =   0.0312500
        k(   29) = (   0.2500000  -0.2500000   0.0000000), wk =   0.0312500
        k(   30) = (   0.2500000  -0.2500000   0.1750000), wk =   0.0312500
        k(   31) = (   0.2500000  -0.2500000  -0.3500000), wk =   0.0312500
        k(   32) = (   0.2500000  -0.2500000  -0.1750000), wk =   0.0312500
        k(   33) = (  -0.5000000   0.0000000   0.0000000), wk =   0.0312500
        k(   34) = (  -0.5000000   0.0000000   0.1750000), wk =   0.0312500
        k(   35) = (  -0.5000000   0.0000000  -0.3500000), wk =   0.0312500
        k(   36) = (  -0.5000000   0.0000000  -0.1750000), wk =   0.0312500
        k(   37) = (  -0.5000000   0.2500000   0.0000000), wk =   0.0312500
        k(   38) = (  -0.5000000   0.2500000   0.1750000), wk =   0.0312500
        k(   39) = (  -0.5000000   0.2500000  -0.3500000), wk =   0.0312500
        k(   40) = (  -0.5000000   0.2500000  -0.1750000), wk =   0.0312500
        k(   41) = (  -0.5000000  -0.5000000   0.0000000), wk =   0.0312500
        k(   42) = (  -0.5000000  -0.5000000   0.1750000), wk =   0.0312500
        k(   43) = (  -0.5000000  -0.5000000  -0.3500000), wk =   0.0312500
        k(   44) = (  -0.5000000  -0.5000000  -0.1750000), wk =   0.0312500
        k(   45) = (  -0.5000000  -0.2500000   0.0000000), wk =   0.0312500
        k(   46) = (  -0.5000000  -0.2500000   0.1750000), wk =   0.0312500
        k(   47) = (  -0.5000000  -0.2500000  -0.3500000), wk =   0.0312500
        k(   48) = (  -0.5000000  -0.2500000  -0.1750000), wk =   0.0312500
        k(   49) = (  -0.2500000   0.0000000   0.0000000), wk =   0.0312500
        k(   50) = (  -0.2500000   0.0000000   0.1750000), wk =   0.0312500
        k(   51) = (  -0.2500000   0.0000000  -0.3500000), wk =   0.0312500
        k(   52) = (  -0.2500000   0.0000000  -0.1750000), wk =   0.0312500
        k(   53) = (  -0.2500000   0.2500000   0.0000000), wk =   0.0312500
        k(   54) = (  -0.2500000   0.2500000   0.1750000), wk =   0.0312500
        k(   55) = (  -0.2500000   0.2500000  -0.3500000), wk =   0.0312500
        k(   56) = (  -0.2500000   0.2500000  -0.1750000), wk =   0.0312500
        k(   57) = (  -0.2500000  -0.5000000   0.0000000), wk =   0.0312500
        k(   58) = (  -0.2500000  -0.5000000   0.1750000), wk =   0.0312500
        k(   59) = (  -0.2500000  -0.5000000  -0.3500000), wk =   0.0312500
        k(   60) = (  -0.2500000  -0.5000000  -0.1750000), wk =   0.0312500
        k(   61) = (  -0.2500000  -0.2500000   0.0000000), wk =   0.0312500
        k(   62) = (  -0.2500000  -0.2500000   0.1750000), wk =   0.0312500
        k(   63) = (  -0.2500000  -0.2500000  -0.3500000), wk =   0.0312500
        k(   64) = (  -0.2500000  -0.2500000  -0.1750000), wk =   0.0312500

                       cryst. coord.
        k(    1) = (   0.0000000   0.0000000   0.0000000), wk =   0.0312500
        k(    2) = (   0.0000000   0.0000000   0.2500000), wk =   0.0312500
        k(    3) = (   0.0000000   0.0000000  -0.5000000), wk =   0.0312500
        k(    4) = (   0.0000000   0.0000000  -0.2500000), wk =   0.0312500
        k(    5) = (   0.0000000   0.2500000   0.0000000), wk =   0.0312500
        k(    6) = (   0.0000000   0.2500000   0.2500000), wk =   0.0312500
        k(    7) = (   0.0000000   0.2500000  -0.5000000), wk =   0.0312500
        k(    8) = (   0.0000000   0.2500000  -0.2500000), wk =   0.0312500
        k(    9) = (   0.0000000  -0.5000000   0.0000000), wk =   0.0312500
        k(   10) = (   0.0000000  -0.5000000   0.2500000), wk =   0.0312500
        k(   11) = (   0.0000000  -0.5000000  -0.5000000), wk =   0.0312500
        k(   12) = (   0.0000000  -0.5000000  -0.2500000), wk =   0.0312500
        k(   13) = (   0.0000000  -0.2500000   0.0000000), wk =   0.0312500
        k(   14) = (   0.0000000  -0.2500000   0.2500000), wk =   0.0312500
        k(   15) = (   0.0000000  -0.2500000  -0.5000000), wk =   0.0312500
        k(   16) = (   0.0000000  -0.2500000  -0.2500000), wk =   0.0312500
        k(   17) = (   0.2500000   0.0000000   0.0000000), wk =   0.0312500
        k(   18) = (   0.2500000   0.0000000   0.2500000), wk =   0.0312500
        k(   19) = (   0.2500000   0.0000000  -0.5000000), wk =   0.0312500
        k(   20) = (   0.2500000   0.0000000  -0.2500000), wk =   0.0312500
        k(   21) = (   0.2500000   0.2500000   0.0000000), wk =   0.0312500
        k(   22) = (   0.2500000   0.2500000   0.2500000), wk =   0.0312500
        k(   23) = (   0.2500000   0.2500000  -0.5000000), wk =   0.0312500
        k(   24) = (   0.2500000   0.2500000  -0.2500000), wk =   0.0312500
        k(   25) = (   0.2500000  -0.5000000   0.0000000), wk =   0.0312500
        k(   26) = (   0.2500000  -0.5000000   0.2500000), wk =   0.0312500
        k(   27) = (   0.2500000  -0.5000000  -0.5000000), wk =   0.0312500
        k(   28) = (   0.2500000  -0.5000000  -0.2500000), wk =   0.0312500
        k(   29) = (   0.2500000  -0.2500000   0.0000000), wk =   0.0312500
        k(   30) = (   0.2500000  -0.2500000   0.2500000), wk =   0.0312500
        k(   31) = (   0.2500000  -0.2500000  -0.5000000), wk =   0.0312500
        k(   32) = (   0.2500000  -0.2500000  -0.2500000), wk =   0.0312500
        k(   33) = (  -0.5000000   0.0000000   0.0000000), wk =   0.0312500
        k(   34) = (  -0.5000000   0.0000000   0.2500000), wk =   0.0312500
        k(   35) = (  -0.5000000   0.0000000  -0.5000000), wk =   0.0312500
        k(   36) = (  -0.5000000   0.0000000  -0.2500000), wk =   0.0312500
        k(   37) = (  -0.5000000   0.2500000   0.0000000), wk =   0.0312500
        k(   38) = (  -0.5000000   0.2500000   0.2500000), wk =   0.0312500
        k(   39) = (  -0.5000000   0.2500000  -0.5000000), wk =   0.0312500
        k(   40) = (  -0.5000000   0.2500000  -0.2500000), wk =   0.0312500
        k(   41) = (  -0.5000000  -0.5000000   0.0000000), wk =   0.0312500
        k(   42) = (  -0.5000000  -0.5000000   0.2500000), wk =   0.0312500
        k(   43) = (  -0.5000000  -0.5000000  -0.5000000), wk =   0.0312500
        k(   44) = (  -0.5000000  -0.5000000  -0.2500000), wk =   0.0312500
        k(   45) = (  -0.5000000  -0.2500000   0.0000000), wk =   0.0312500
        k(   46) = (  -0.5000000  -0.2500000   0.2500000), wk =   0.0312500
        k(   47) = (  -0.5000000  -0.2500000  -0.5000000), wk =   0.0312500
        k(   48) = (  -0.5000000  -0.2500000  -0.2500000), wk =   0.0312500
        k(   49) = (  -0.2500000   0.0000000   0.0000000), wk =   0.0312500
        k(   50) = (  -0.2500000   0.0000000   0.2500000), wk =   0.0312500
        k(   51) = (  -0.2500000   0.0000000  -0.5000000), wk =   0.0312500
        k(   52) = (  -0.2500000   0.0000000  -0.2500000), wk =   0.0312500
        k(   53) = (  -0.2500000   0.2500000   0.0000000), wk =   0.0312500
        k(   54) = (  -0.2500000   0.2500000   0.2500000), wk =   0.0312500
        k(   55) = (  -0.2500000   0.2500000  -0.5000000), wk =   0.0312500
        k(   56) = (  -0.2500000   0.2500000  -0.2500000), wk =   0.0312500
        k(   57) = (  -0.2500000  -0.5000000   0.0000000), wk =   0.0312500
        k(   58) = (  -0.2500000  -0.5000000   0.2500000), wk =   0.0312500
        k(   59) = (  -0.2500000  -0.5000000  -0.5000000), wk =   0.0312500
        k(   60) = (  -0.2500000  -0.5000000  -0.2500000), wk =   0.0312500
        k(   61) = (  -0.2500000  -0.2500000   0.0000000), wk =   0.0312500
        k(   62) = (  -0.2500000  -0.2500000   0.2500000), wk =   0.0312500
        k(   63) = (  -0.2500000  -0.2500000  -0.5000000), wk =   0.0312500
        k(   64) = (  -0.2500000  -0.2500000  -0.2500000), wk =   0.0312500

     Dense  grid:   261761 G-vectors     FFT dimensions: (  72,  72, 108)

     Smooth grid:   159925 G-vectors     FFT dimensions: (  60,  60,  90)

     Dynamical RAM for                 wfc:       1.26 MB

     Dynamical RAM for     wfc (w. buffer):      81.73 MB

     Dynamical RAM for           str. fact:       1.00 MB

     Dynamical RAM for           local pot:       0.00 MB

     Dynamical RAM for          nlocal pot:       1.41 MB

     Dynamical RAM for                qrad:       7.53 MB

     Dynamical RAM for          rho,v,vnew:       3.16 MB

     Dynamical RAM for           G-vectors:       2.02 MB

     Dynamical RAM for          h,s,v(r/c):       0.20 MB

     Dynamical RAM for          <psi|beta>:       0.02 MB

     Dynamical RAM for                 psi:       5.03 MB

     Dynamical RAM for                hpsi:       5.03 MB

     Dynamical RAM for                spsi:       5.03 MB

     Dynamical RAM for      wfcinit/wfcrot:       2.54 MB

     Dynamical RAM for           addusdens:     102.85 MB

     Estimated static dynamical RAM per process >     101.12 MB

     Estimated max dynamical RAM per process >     203.97 MB

     Estimated total dynamical RAM >       1.59 GB

     The potential is recalculated from file :
     /wrk/kfg/julia_data/MgS/dimer.in_vnscf_coords_6/qe.nscf.save/charge-density


     negative rho (up, down):  4.734E-05 0.000E+00
     Starting wfcs are   12 randomized atomic wfcs +   21 random wfcs

     Band Structure Calculation
     Davidson diagonalization with overlap

     Computing kpt #:     1  of    64
     total cpu time spent up to now is        3.3 secs

     Computing kpt #:     2  of    64
     total cpu time spent up to now is        5.2 secs

     Computing kpt #:     3  of    64
     total cpu time spent up to now is        7.1 secs

     Computing kpt #:     4  of    64
     total cpu time spent up to now is        8.9 secs

     Computing kpt #:     5  of    64
     total cpu time spent up to now is       11.3 secs

     Computing kpt #:     6  of    64
     total cpu time spent up to now is       13.0 secs

     Computing kpt #:     7  of    64
     total cpu time spent up to now is       15.5 secs

     Computing kpt #:     8  of    64
     total cpu time spent up to now is       17.3 secs

     Computing kpt #:     9  of    64
     total cpu time spent up to now is       19.2 secs

     Computing kpt #:    10  of    64
     total cpu time spent up to now is       21.0 secs

     Computing kpt #:    11  of    64
     total cpu time spent up to now is       23.1 secs

     Computing kpt #:    12  of    64
     total cpu time spent up to now is       24.9 secs

     Computing kpt #:    13  of    64
     total cpu time spent up to now is       27.4 secs

     Computing kpt #:    14  of    64
     total cpu time spent up to now is       29.3 secs

     Computing kpt #:    15  of    64
     total cpu time spent up to now is       31.7 secs

     Computing kpt #:    16  of    64
     total cpu time spent up to now is       33.6 secs

     Computing kpt #:    17  of    64
     total cpu time spent up to now is       36.0 secs

     Computing kpt #:    18  of    64
     total cpu time spent up to now is       37.9 secs

     Computing kpt #:    19  of    64
     total cpu time spent up to now is       39.8 secs

     Computing kpt #:    20  of    64
     total cpu time spent up to now is       41.7 secs

     Computing kpt #:    21  of    64
     total cpu time spent up to now is       43.7 secs

     Computing kpt #:    22  of    64
     total cpu time spent up to now is       45.8 secs

     Computing kpt #:    23  of    64
     total cpu time spent up to now is       47.7 secs

     Computing kpt #:    24  of    64
     total cpu time spent up to now is       49.5 secs

     Computing kpt #:    25  of    64
     total cpu time spent up to now is       51.6 secs

     Computing kpt #:    26  of    64
     total cpu time spent up to now is       53.4 secs

     Computing kpt #:    27  of    64
     total cpu time spent up to now is       55.3 secs

     Computing kpt #:    28  of    64
     total cpu time spent up to now is       57.1 secs

     Computing kpt #:    29  of    64
     total cpu time spent up to now is       59.6 secs

     Computing kpt #:    30  of    64
     total cpu time spent up to now is       61.5 secs

     Computing kpt #:    31  of    64
     total cpu time spent up to now is       63.3 secs

     Computing kpt #:    32  of    64
     total cpu time spent up to now is       65.4 secs

     Computing kpt #:    33  of    64
     total cpu time spent up to now is       67.1 secs

     Computing kpt #:    34  of    64
     total cpu time spent up to now is       68.9 secs

     Computing kpt #:    35  of    64
     total cpu time spent up to now is       71.1 secs

     Computing kpt #:    36  of    64
     total cpu time spent up to now is       72.9 secs

     Computing kpt #:    37  of    64
     total cpu time spent up to now is       75.1 secs

     Computing kpt #:    38  of    64
     total cpu time spent up to now is       76.9 secs

     Computing kpt #:    39  of    64
     total cpu time spent up to now is       79.0 secs

     Computing kpt #:    40  of    64
     total cpu time spent up to now is       80.8 secs

     Computing kpt #:    41  of    64
     total cpu time spent up to now is       83.0 secs

     Computing kpt #:    42  of    64
     total cpu time spent up to now is       85.0 secs

     Computing kpt #:    43  of    64
     total cpu time spent up to now is       87.1 secs

     Computing kpt #:    44  of    64
     total cpu time spent up to now is       89.3 secs

     Computing kpt #:    45  of    64
     total cpu time spent up to now is       91.2 secs

     Computing kpt #:    46  of    64
     total cpu time spent up to now is       93.0 secs

     Computing kpt #:    47  of    64
     total cpu time spent up to now is       95.1 secs

     Computing kpt #:    48  of    64
     total cpu time spent up to now is       96.9 secs

     Computing kpt #:    49  of    64
     total cpu time spent up to now is       99.4 secs

     Computing kpt #:    50  of    64
     total cpu time spent up to now is      101.2 secs

     Computing kpt #:    51  of    64
     total cpu time spent up to now is      103.1 secs

     Computing kpt #:    52  of    64
     total cpu time spent up to now is      104.9 secs

     Computing kpt #:    53  of    64
     total cpu time spent up to now is      106.7 secs

     Computing kpt #:    54  of    64
     total cpu time spent up to now is      108.6 secs

     Computing kpt #:    55  of    64
     total cpu time spent up to now is      110.9 secs

     Computing kpt #:    56  of    64
     total cpu time spent up to now is      112.7 secs

     Computing kpt #:    57  of    64
     total cpu time spent up to now is      114.8 secs

     Computing kpt #:    58  of    64
     total cpu time spent up to now is      116.6 secs

     Computing kpt #:    59  of    64
     total cpu time spent up to now is      118.5 secs

     Computing kpt #:    60  of    64
     total cpu time spent up to now is      120.4 secs

     Computing kpt #:    61  of    64
     total cpu time spent up to now is      122.3 secs

     Computing kpt #:    62  of    64
     total cpu time spent up to now is      124.1 secs

     Computing kpt #:    63  of    64
     total cpu time spent up to now is      126.2 secs

     Computing kpt #:    64  of    64
     total cpu time spent up to now is      128.0 secs

     ethr =  6.25E-12,  avg # of iterations = 42.7

     total cpu time spent up to now is      128.0 secs

     End of band structure calculation

          k = 0.0000 0.0000 0.0000 ( 19923 PWs)   bands (ev):

   -80.4769 -47.4316 -47.4316 -47.4154 -14.1267  -5.8369  -4.0424  -4.0424
    -3.6429  -0.4608  -0.4608   0.2264   0.4525   1.4188   1.4456   2.7504
     2.7504   2.7567   3.0825   3.3752   3.3799   3.7124   3.7191   3.7191
     4.2947   4.3081   4.3081   4.9074   5.1890   5.1890   5.2184   5.3204
     6.0528

     occupation numbers 
     1.0000   1.0000   1.0000   1.0000   1.0000   1.0000   0.9907   0.9907
     0.0360   0.0000   0.0000   0.0000   0.0000   0.0000   0.0000   0.0000
     0.0000   0.0000   0.0000   0.0000   0.0000   0.0000   0.0000   0.0000
     0.0000   0.0000   0.0000   0.0000   0.0000   0.0000   0.0000   0.0000
     0.0000

          k = 0.0000 0.0000 0.1750 ( 19971 PWs)   bands (ev):

   -80.4769 -47.4316 -47.4316 -47.4154 -14.1267  -5.8379  -4.0423  -4.0423
    -3.6367  -0.4638  -0.4638   0.1578   0.3984   1.4612   1.6929   2.5994
     2.8273   2.8273   3.0631   3.0890   3.6548   3.6702   3.6702   3.9398
     4.1504   4.1504   4.2486   4.6360   5.1519   5.4077   5.4130   5.4130
     5.9736

     occupation numbers 
     1.0000   1.0000   1.0000   1.0000   1.0000   1.0000   0.9907   0.9907
     0.0312   0.0000   0.0000   0.0000   0.0000   0.0000   0.0000   0.0000
     0.0000   0.0000   0.0000   0.0000   0.0000   0.0000   0.0000   0.0000
     0.0000   0.0000   0.0000   0.0000   0.0000   0.0000   0.0000   0.0000
     0.0000

          k = 0.0000 0.0000-0.3500 ( 19978 PWs)   bands (ev):

   -80.4769 -47.4316 -47.4316 -47.4154 -14.1267  -5.8389  -4.0422  -4.0422
    -3.6305  -0.4668  -0.4668   0.0801   0.3852   1.4779   1.9389   2.6526
     2.9051   2.9287   2.9287   3.0956   3.2846   3.5653   3.5653   3.9929
     4.0762   4.0762   4.7576   5.0395   5.0455   5.1735   5.4261   5.4261
     5.4842

     occupation numbers 
     1.0000   1.0000   1.0000   1.0000   1.0000   1.0000   0.9906   0.9906
     0.0269   0.0000   0.0000   0.0000   0.0000   0.0000   0.0000   0.0000
     0.0000   0.0000   0.0000   0.0000   0.0000   0.0000   0.0000   0.0000
     0.0000   0.0000   0.0000   0.0000   0.0000   0.0000   0.0000   0.0000
     0.0000

          k = 0.0000 0.0000-0.1750 ( 19971 PWs)   bands (ev):

   -80.4769 -47.4316 -47.4316 -47.4154 -14.1267  -5.8379  -4.0423  -4.0423
    -3.6367  -0.4638  -0.4638   0.1578   0.3984   1.4612   1.6929   2.5994
     2.8273   2.8273   3.0631   3.0890   3.6548   3.6702   3.6702   3.9398
     4.1504   4.1504   4.2486   4.6360   5.1519   5.4077   5.4130   5.4130
     5.9736

     occupation numbers 
     1.0000   1.0000   1.0000   1.0000   1.0000   1.0000   0.9907   0.9907
     0.0312   0.0000   0.0000   0.0000   0.0000   0.0000   0.0000   0.0000
     0.0000   0.0000   0.0000   0.0000   0.0000   0.0000   0.0000   0.0000
     0.0000   0.0000   0.0000   0.0000   0.0000   0.0000   0.0000   0.0000
     0.0000

          k = 0.0000 0.2500 0.0000 ( 19968 PWs)   bands (ev):

   -80.4769 -47.4316 -47.4316 -47.4154 -14.1266  -5.8333  -4.0575  -4.0411
    -3.6231  -0.7756  -0.4335   0.5388   0.5830   1.5233   1.7031   2.1989
     2.4419   2.5411   3.0011   3.1427   3.1643   3.7887   4.1144   4.1373
     4.4678   4.4712   4.7524   4.9509   5.0920   5.1925   5.2870   5.5539
     5.6206

     occupation numbers 
     1.0000   1.0000   1.0000   1.0000   1.0000   1.0000   0.9940   0.9903
     0.0224   0.0000   0.0000   0.0000   0.0000   0.0000   0.0000   0.0000
     0.0000   0.0000   0.0000   0.0000   0.0000   0.0000   0.0000   0.0000
     0.0000   0.0000   0.0000   0.0000   0.0000   0.0000   0.0000   0.0000
     0.0000

          k = 0.0000 0.2500 0.1750 ( 19980 PWs)   bands (ev):

   -80.4769 -47.4316 -47.4316 -47.4154 -14.1266  -5.8343  -4.0574  -4.0410
    -3.6172  -0.7785  -0.4363   0.3377   0.7017   1.5891   1.8561   2.0769
     2.4680   2.7446   2.9363   3.0462   3.2768   3.7755   3.9565   4.2031
     4.3663   4.4371   4.6314   4.8683   4.8813   5.1516   5.3384   5.4158
     5.7054

     occupation numbers 
     1.0000   1.0000   1.0000   1.0000   1.0000   1.0000   0.9939   0.9903
     0.0194   0.0000   0.0000   0.0000   0.0000   0.0000   0.0000   0.0000
     0.0000   0.0000   0.0000   0.0000   0.0000   0.0000   0.0000   0.0000
     0.0000   0.0000   0.0000   0.0000   0.0000   0.0000   0.0000   0.0000
     0.0000

          k = 0.0000 0.2500-0.3500 ( 19962 PWs)   bands (ev):

   -80.4769 -47.4316 -47.4316 -47.4154 -14.1266  -5.8352  -4.0573  -4.0409
    -3.6113  -0.7814  -0.4392   0.2310   0.7427   1.6840   1.7626   2.3018
     2.4959   2.7191   3.0434   3.0940   3.3340   3.4290   3.8639   4.2049
     4.2681   4.3355   4.6522   4.7279   5.0321   5.1541   5.4946   5.6194
     5.8781

     occupation numbers 
     1.0000   1.0000   1.0000   1.0000   1.0000   1.0000   0.9939   0.9903
     0.0167   0.0000   0.0000   0.0000   0.0000   0.0000   0.0000   0.0000
     0.0000   0.0000   0.0000   0.0000   0.0000   0.0000   0.0000   0.0000
     0.0000   0.0000   0.0000   0.0000   0.0000   0.0000   0.0000   0.0000
     0.0000

          k = 0.0000 0.2500-0.1750 ( 19980 PWs)   bands (ev):

   -80.4769 -47.4316 -47.4316 -47.4154 -14.1266  -5.8343  -4.0574  -4.0410
    -3.6172  -0.7785  -0.4363   0.3377   0.7017   1.5891   1.8561   2.0769
     2.4680   2.7446   2.9363   3.0462   3.2768   3.7755   3.9565   4.2031
     4.3663   4.4371   4.6314   4.8683   4.8813   5.1516   5.3384   5.4158
     5.7054

     occupation numbers 
     1.0000   1.0000   1.0000   1.0000   1.0000   1.0000   0.9939   0.9903
     0.0194   0.0000   0.0000   0.0000   0.0000   0.0000   0.0000   0.0000
     0.0000   0.0000   0.0000   0.0000   0.0000   0.0000   0.0000   0.0000
     0.0000   0.0000   0.0000   0.0000   0.0000   0.0000   0.0000   0.0000
     0.0000

          k = 0.0000-0.5000 0.0000 ( 20022 PWs)   bands (ev):

   -80.4769 -47.4316 -47.4316 -47.4154 -14.1266  -5.8297  -4.0721  -4.0398
    -3.6030  -0.9810  -0.4044   0.7680   0.9326   1.1726   1.9331   1.9612
     2.1808   2.4773   3.1283   3.1374   3.4646   3.5456   4.0930   4.0964
     4.2382   4.4153   4.6628   4.8356   4.9704   5.2188   5.4471   5.7781
     5.7877

     occupation numbers 
     1.0000   1.0000   1.0000   1.0000   1.0000   1.0000   0.9961   0.9900
     0.0134   0.0000   0.0000   0.0000   0.0000   0.0000   0.0000   0.0000
     0.0000   0.0000   0.0000   0.0000   0.0000   0.0000   0.0000   0.0000
     0.0000   0.0000   0.0000   0.0000   0.0000   0.0000   0.0000   0.0000
     0.0000

          k = 0.0000-0.5000 0.1750 ( 19978 PWs)   bands (ev):

   -80.4769 -47.4316 -47.4316 -47.4154 -14.1266  -5.8306  -4.0719  -4.0397
    -3.5974  -0.9847  -0.4071   0.5832   1.0351   1.1990   1.8252   2.1963
     2.2021   2.6734   3.0066   3.2192   3.4901   3.5110   3.7840   4.1686
     4.2861   4.3778   4.4410   4.8193   4.9367   5.2908   5.4042   5.6575
     5.9162

     occupation numbers 
     1.0000   1.0000   1.0000   1.0000   1.0000   1.0000   0.9961   0.9900
     0.0115   0.0000   0.0000   0.0000   0.0000   0.0000   0.0000   0.0000
     0.0000   0.0000   0.0000   0.0000   0.0000   0.0000   0.0000   0.0000
     0.0000   0.0000   0.0000   0.0000   0.0000   0.0000   0.0000   0.0000
     0.0000

          k = 0.0000-0.5000-0.3500 ( 19976 PWs)   bands (ev):

   -80.4769 -47.4316 -47.4316 -47.4154 -14.1266  -5.8315  -4.0718  -4.0397
    -3.5918  -0.9884  -0.4098   0.4712   1.0784   1.2306   1.7358   2.2128
     2.4598   2.9182   2.9673   3.3406   3.3991   3.4883   3.6281   4.0065
     4.0759   4.1888   4.2076   5.1143   5.3638   5.4790   5.6098   5.6517
     5.6968

     occupation numbers 
     1.0000   1.0000   1.0000   1.0000   1.0000   1.0000   0.9961   0.9899
     0.0099   0.0000   0.0000   0.0000   0.0000   0.0000   0.0000   0.0000
     0.0000   0.0000   0.0000   0.0000   0.0000   0.0000   0.0000   0.0000
     0.0000   0.0000   0.0000   0.0000   0.0000   0.0000   0.0000   0.0000
     0.0000

          k = 0.0000-0.5000-0.1750 ( 19978 PWs)   bands (ev):

   -80.4769 -47.4316 -47.4316 -47.4154 -14.1266  -5.8306  -4.0719  -4.0397
    -3.5974  -0.9847  -0.4071   0.5832   1.0351   1.1990   1.8252   2.1963
     2.2021   2.6734   3.0066   3.2192   3.4901   3.5110   3.7840   4.1686
     4.2861   4.3778   4.4410   4.8193   4.9367   5.2908   5.4042   5.6575
     5.9162

     occupation numbers 
     1.0000   1.0000   1.0000   1.0000   1.0000   1.0000   0.9961   0.9900
     0.0115   0.0000   0.0000   0.0000   0.0000   0.0000   0.0000   0.0000
     0.0000   0.0000   0.0000   0.0000   0.0000   0.0000   0.0000   0.0000
     0.0000   0.0000   0.0000   0.0000   0.0000   0.0000   0.0000   0.0000
     0.0000

          k = 0.0000-0.2500 0.0000 ( 19968 PWs)   bands (ev):

   -80.4769 -47.4316 -47.4316 -47.4154 -14.1266  -5.8333  -4.0575  -4.0411
    -3.6231  -0.7756  -0.4335   0.5388   0.5830   1.5233   1.7031   2.1989
     2.4419   2.5411   3.0011   3.1427   3.1643   3.7887   4.1144   4.1373
     4.4678   4.4712   4.7524   4.9509   5.0920   5.1925   5.2870   5.5539
     5.6206

     occupation numbers 
     1.0000   1.0000   1.0000   1.0000   1.0000   1.0000   0.9940   0.9903
     0.0224   0.0000   0.0000   0.0000   0.0000   0.0000   0.0000   0.0000
     0.0000   0.0000   0.0000   0.0000   0.0000   0.0000   0.0000   0.0000
     0.0000   0.0000   0.0000   0.0000   0.0000   0.0000   0.0000   0.0000
     0.0000

          k = 0.0000-0.2500 0.1750 ( 19980 PWs)   bands (ev):

   -80.4769 -47.4316 -47.4316 -47.4154 -14.1266  -5.8343  -4.0574  -4.0410
    -3.6172  -0.7785  -0.4363   0.3377   0.7017   1.5891   1.8561   2.0769
     2.4680   2.7446   2.9363   3.0462   3.2768   3.7755   3.9565   4.2031
     4.3663   4.4371   4.6314   4.8683   4.8813   5.1516   5.3384   5.4158
     5.7054

     occupation numbers 
     1.0000   1.0000   1.0000   1.0000   1.0000   1.0000   0.9939   0.9903
     0.0194   0.0000   0.0000   0.0000   0.0000   0.0000   0.0000   0.0000
     0.0000   0.0000   0.0000   0.0000   0.0000   0.0000   0.0000   0.0000
     0.0000   0.0000   0.0000   0.0000   0.0000   0.0000   0.0000   0.0000
     0.0000

          k = 0.0000-0.2500-0.3500 ( 19962 PWs)   bands (ev):

   -80.4769 -47.4316 -47.4316 -47.4154 -14.1266  -5.8352  -4.0573  -4.0409
    -3.6113  -0.7814  -0.4392   0.2310   0.7427   1.6840   1.7626   2.3018
     2.4959   2.7191   3.0434   3.0940   3.3340   3.4290   3.8639   4.2049
     4.2681   4.3355   4.6522   4.7279   5.0321   5.1541   5.4946   5.6194
     5.8781

     occupation numbers 
     1.0000   1.0000   1.0000   1.0000   1.0000   1.0000   0.9939   0.9903
     0.0167   0.0000   0.0000   0.0000   0.0000   0.0000   0.0000   0.0000
     0.0000   0.0000   0.0000   0.0000   0.0000   0.0000   0.0000   0.0000
     0.0000   0.0000   0.0000   0.0000   0.0000   0.0000   0.0000   0.0000
     0.0000

          k = 0.0000-0.2500-0.1750 ( 19980 PWs)   bands (ev):

   -80.4769 -47.4316 -47.4316 -47.4154 -14.1266  -5.8343  -4.0574  -4.0410
    -3.6172  -0.7785  -0.4363   0.3377   0.7017   1.5891   1.8561   2.0769
     2.4680   2.7446   2.9363   3.0462   3.2768   3.7755   3.9565   4.2031
     4.3663   4.4371   4.6314   4.8683   4.8813   5.1516   5.3384   5.4158
     5.7054

     occupation numbers 
     1.0000   1.0000   1.0000   1.0000   1.0000   1.0000   0.9939   0.9903
     0.0194   0.0000   0.0000   0.0000   0.0000   0.0000   0.0000   0.0000
     0.0000   0.0000   0.0000   0.0000   0.0000   0.0000   0.0000   0.0000
     0.0000   0.0000   0.0000   0.0000   0.0000   0.0000   0.0000   0.0000
     0.0000

          k = 0.2500 0.0000 0.0000 ( 19968 PWs)   bands (ev):

   -80.4769 -47.4316 -47.4316 -47.4154 -14.1266  -5.8333  -4.0575  -4.0411
    -3.6231  -0.7756  -0.4335   0.5388   0.5830   1.5233   1.7031   2.1989
     2.4419   2.5411   3.0011   3.1427   3.1643   3.7887   4.1144   4.1373
     4.4678   4.4712   4.7524   4.9509   5.0920   5.1925   5.2870   5.5539
     5.6206

     occupation numbers 
     1.0000   1.0000   1.0000   1.0000   1.0000   1.0000   0.9940   0.9903
     0.0224   0.0000   0.0000   0.0000   0.0000   0.0000   0.0000   0.0000
     0.0000   0.0000   0.0000   0.0000   0.0000   0.0000   0.0000   0.0000
     0.0000   0.0000   0.0000   0.0000   0.0000   0.0000   0.0000   0.0000
     0.0000

          k = 0.2500 0.0000 0.1750 ( 19980 PWs)   bands (ev):

   -80.4769 -47.4316 -47.4316 -47.4154 -14.1266  -5.8343  -4.0574  -4.0410
    -3.6172  -0.7785  -0.4363   0.3377   0.7017   1.5891   1.8561   2.0769
     2.4680   2.7446   2.9363   3.0462   3.2768   3.7755   3.9565   4.2031
     4.3663   4.4371   4.6314   4.8683   4.8813   5.1516   5.3384   5.4158
     5.7054

     occupation numbers 
     1.0000   1.0000   1.0000   1.0000   1.0000   1.0000   0.9939   0.9903
     0.0194   0.0000   0.0000   0.0000   0.0000   0.0000   0.0000   0.0000
     0.0000   0.0000   0.0000   0.0000   0.0000   0.0000   0.0000   0.0000
     0.0000   0.0000   0.0000   0.0000   0.0000   0.0000   0.0000   0.0000
     0.0000

          k = 0.2500 0.0000-0.3500 ( 19962 PWs)   bands (ev):

   -80.4769 -47.4316 -47.4316 -47.4154 -14.1266  -5.8352  -4.0573  -4.0409
    -3.6113  -0.7814  -0.4392   0.2310   0.7427   1.6840   1.7626   2.3018
     2.4959   2.7191   3.0434   3.0940   3.3340   3.4290   3.8639   4.2049
     4.2681   4.3355   4.6522   4.7279   5.0321   5.1541   5.4946   5.6194
     5.8781

     occupation numbers 
     1.0000   1.0000   1.0000   1.0000   1.0000   1.0000   0.9939   0.9903
     0.0167   0.0000   0.0000   0.0000   0.0000   0.0000   0.0000   0.0000
     0.0000   0.0000   0.0000   0.0000   0.0000   0.0000   0.0000   0.0000
     0.0000   0.0000   0.0000   0.0000   0.0000   0.0000   0.0000   0.0000
     0.0000

          k = 0.2500 0.0000-0.1750 ( 19980 PWs)   bands (ev):

   -80.4769 -47.4316 -47.4316 -47.4154 -14.1266  -5.8343  -4.0574  -4.0410
    -3.6172  -0.7785  -0.4363   0.3377   0.7017   1.5891   1.8561   2.0769
     2.4680   2.7446   2.9363   3.0462   3.2768   3.7755   3.9565   4.2031
     4.3663   4.4371   4.6314   4.8683   4.8813   5.1516   5.3384   5.4158
     5.7054

     occupation numbers 
     1.0000   1.0000   1.0000   1.0000   1.0000   1.0000   0.9939   0.9903
     0.0194   0.0000   0.0000   0.0000   0.0000   0.0000   0.0000   0.0000
     0.0000   0.0000   0.0000   0.0000   0.0000   0.0000   0.0000   0.0000
     0.0000   0.0000   0.0000   0.0000   0.0000   0.0000   0.0000   0.0000
     0.0000

          k = 0.2500 0.2500 0.0000 ( 19983 PWs)   bands (ev):

   -80.4769 -47.4316 -47.4316 -47.4154 -14.1266  -5.8298  -4.0565  -4.0552
    -3.6042  -0.7584  -0.6883   0.6973   0.8311   1.6326   1.7798   2.0389
     2.2243   2.4212   2.7645   3.0304   3.5035   3.7116   4.0094   4.1405
     4.3730   4.5048   4.8212   5.0231   5.1026   5.3673   5.4362   5.6576
     5.8975

     occupation numbers 
     1.0000   1.0000   1.0000   1.0000   1.0000   1.0000   0.9938   0.9935
     0.0139   0.0000   0.0000   0.0000   0.0000   0.0000   0.0000   0.0000
     0.0000   0.0000   0.0000   0.0000   0.0000   0.0000   0.0000   0.0000
     0.0000   0.0000   0.0000   0.0000   0.0000   0.0000   0.0000   0.0000
     0.0000

          k = 0.2500 0.2500 0.1750 ( 19985 PWs)   bands (ev):

   -80.4769 -47.4316 -47.4316 -47.4154 -14.1266  -5.8307  -4.0564  -4.0551
    -3.5986  -0.7613  -0.6918   0.4899   0.9989   1.7348   1.8426   1.9018
     2.2940   2.3077   3.0624   3.1714   3.3145   3.7369   4.0130   4.1085
     4.2633   4.5314   4.7814   4.7935   4.9710   5.2796   5.4680   5.5882
     5.9222

     occupation numbers 
     1.0000   1.0000   1.0000   1.0000   1.0000   1.0000   0.9938   0.9935
     0.0119   0.0000   0.0000   0.0000   0.0000   0.0000   0.0000   0.0000
     0.0000   0.0000   0.0000   0.0000   0.0000   0.0000   0.0000   0.0000
     0.0000   0.0000   0.0000   0.0000   0.0000   0.0000   0.0000   0.0000
     0.0000

          k = 0.2500 0.2500-0.3500 ( 19980 PWs)   bands (ev):

   -80.4769 -47.4316 -47.4316 -47.4154 -14.1266  -5.8316  -4.0562  -4.0550
    -3.5930  -0.7641  -0.6953   0.3775   1.0903   1.7383   1.8247   1.9543
     2.1333   2.5837   3.1019   3.3278   3.3397   3.7235   3.7681   4.0213
     4.3627   4.3998   4.6268   4.7810   5.0673   5.2505   5.4883   5.6332
     5.8044

     occupation numbers 
     1.0000   1.0000   1.0000   1.0000   1.0000   1.0000   0.9937   0.9935
     0.0102   0.0000   0.0000   0.0000   0.0000   0.0000   0.0000   0.0000
     0.0000   0.0000   0.0000   0.0000   0.0000   0.0000   0.0000   0.0000
     0.0000   0.0000   0.0000   0.0000   0.0000   0.0000   0.0000   0.0000
     0.0000

          k = 0.2500 0.2500-0.1750 ( 19985 PWs)   bands (ev):

   -80.4769 -47.4316 -47.4316 -47.4154 -14.1266  -5.8307  -4.0564  -4.0551
    -3.5986  -0.7613  -0.6918   0.4899   0.9989   1.7348   1.8426   1.9018
     2.2940   2.3077   3.0624   3.1714   3.3145   3.7369   4.0130   4.1085
     4.2633   4.5314   4.7814   4.7935   4.9710   5.2796   5.4680   5.5882
     5.9222

     occupation numbers 
     1.0000   1.0000   1.0000   1.0000   1.0000   1.0000   0.9938   0.9935
     0.0119   0.0000   0.0000   0.0000   0.0000   0.0000   0.0000   0.0000
     0.0000   0.0000   0.0000   0.0000   0.0000   0.0000   0.0000   0.0000
     0.0000   0.0000   0.0000   0.0000   0.0000   0.0000   0.0000   0.0000
     0.0000

          k = 0.2500-0.5000 0.0000 ( 20020 PWs)   bands (ev):

   -80.4769 -47.4316 -47.4316 -47.4154 -14.1265  -5.8263  -4.0701  -4.0541
    -3.5852  -0.9241  -0.6680   0.8921   1.0620   1.3288   1.6448   2.2000
     2.2571   2.5426   2.9164   3.0371   3.1196   3.5431   3.6171   4.2239
     4.3406   4.6551   4.8050   5.0265   5.4674   5.5521   5.7118   5.8269
     5.9665

     occupation numbers 
     1.0000   1.0000   1.0000   1.0000   1.0000   1.0000   0.9959   0.9933
     0.0082   0.0000   0.0000   0.0000   0.0000   0.0000   0.0000   0.0000
     0.0000   0.0000   0.0000   0.0000   0.0000   0.0000   0.0000   0.0000
     0.0000   0.0000   0.0000   0.0000   0.0000   0.0000   0.0000   0.0000
     0.0000

          k = 0.2500-0.5000 0.1750 ( 19978 PWs)   bands (ev):

   -80.4769 -47.4316 -47.4316 -47.4154 -14.1265  -5.8272  -4.0699  -4.0540
    -3.5798  -0.9279  -0.6714   0.7202   1.1122   1.5041   1.5452   2.2712
     2.3541   2.4830   2.8114   3.1666   3.2157   3.6402   3.7741   4.1557
     4.2249   4.5786   4.5815   5.1309   5.3200   5.3223   5.5387   5.5588
     5.8433

     occupation numbers 
     1.0000   1.0000   1.0000   1.0000   1.0000   1.0000   0.9958   0.9933
     0.0070   0.0000   0.0000   0.0000   0.0000   0.0000   0.0000   0.0000
     0.0000   0.0000   0.0000   0.0000   0.0000   0.0000   0.0000   0.0000
     0.0000   0.0000   0.0000   0.0000   0.0000   0.0000   0.0000   0.0000
     0.0000

          k = 0.2500-0.5000-0.3500 ( 19992 PWs)   bands (ev):

   -80.4769 -47.4316 -47.4316 -47.4154 -14.1265  -5.8281  -4.0697  -4.0539
    -3.5745  -0.9317  -0.6748   0.6071   1.1940   1.4191   1.6325   2.2263
     2.3745   2.6782   2.7776   3.2462   3.2512   3.7226   3.9567   4.0257
     4.1275   4.4328   4.7224   4.8399   4.9383   5.2844   5.3626   5.7970
     5.9311

     occupation numbers 
     1.0000   1.0000   1.0000   1.0000   1.0000   1.0000   0.9958   0.9933
     0.0060   0.0000   0.0000   0.0000   0.0000   0.0000   0.0000   0.0000
     0.0000   0.0000   0.0000   0.0000   0.0000   0.0000   0.0000   0.0000
     0.0000   0.0000   0.0000   0.0000   0.0000   0.0000   0.0000   0.0000
     0.0000

          k = 0.2500-0.5000-0.1750 ( 19978 PWs)   bands (ev):

   -80.4769 -47.4316 -47.4316 -47.4154 -14.1265  -5.8272  -4.0699  -4.0540
    -3.5798  -0.9279  -0.6714   0.7202   1.1122   1.5041   1.5452   2.2712
     2.3541   2.4830   2.8114   3.1666   3.2157   3.6402   3.7741   4.1557
     4.2249   4.5786   4.5815   5.1309   5.3200   5.3223   5.5387   5.5588
     5.8433

     occupation numbers 
     1.0000   1.0000   1.0000   1.0000   1.0000   1.0000   0.9958   0.9933
     0.0070   0.0000   0.0000   0.0000   0.0000   0.0000   0.0000   0.0000
     0.0000   0.0000   0.0000   0.0000   0.0000   0.0000   0.0000   0.0000
     0.0000   0.0000   0.0000   0.0000   0.0000   0.0000   0.0000   0.0000
     0.0000

          k = 0.2500-0.2500 0.0000 ( 19983 PWs)   bands (ev):

   -80.4769 -47.4316 -47.4316 -47.4154 -14.1266  -5.8298  -4.0565  -4.0552
    -3.6042  -0.7584  -0.6883   0.6973   0.8311   1.6326   1.7798   2.0389
     2.2243   2.4212   2.7645   3.0304   3.5035   3.7116   4.0094   4.1405
     4.3730   4.5048   4.8212   5.0231   5.1026   5.3673   5.4362   5.6576
     5.8975

     occupation numbers 
     1.0000   1.0000   1.0000   1.0000   1.0000   1.0000   0.9938   0.9935
     0.0139   0.0000   0.0000   0.0000   0.0000   0.0000   0.0000   0.0000
     0.0000   0.0000   0.0000   0.0000   0.0000   0.0000   0.0000   0.0000
     0.0000   0.0000   0.0000   0.0000   0.0000   0.0000   0.0000   0.0000
     0.0000

          k = 0.2500-0.2500 0.1750 ( 19985 PWs)   bands (ev):

   -80.4769 -47.4316 -47.4316 -47.4154 -14.1266  -5.8307  -4.0564  -4.0551
    -3.5986  -0.7613  -0.6918   0.4899   0.9989   1.7348   1.8426   1.9018
     2.2940   2.3077   3.0624   3.1714   3.3145   3.7369   4.0130   4.1085
     4.2633   4.5314   4.7814   4.7935   4.9710   5.2796   5.4680   5.5882
     5.9222

     occupation numbers 
     1.0000   1.0000   1.0000   1.0000   1.0000   1.0000   0.9938   0.9935
     0.0119   0.0000   0.0000   0.0000   0.0000   0.0000   0.0000   0.0000
     0.0000   0.0000   0.0000   0.0000   0.0000   0.0000   0.0000   0.0000
     0.0000   0.0000   0.0000   0.0000   0.0000   0.0000   0.0000   0.0000
     0.0000

          k = 0.2500-0.2500-0.3500 ( 19980 PWs)   bands (ev):

   -80.4769 -47.4316 -47.4316 -47.4154 -14.1266  -5.8316  -4.0562  -4.0550
    -3.5930  -0.7641  -0.6953   0.3775   1.0903   1.7383   1.8247   1.9543
     2.1333   2.5837   3.1019   3.3278   3.3397   3.7235   3.7681   4.0213
     4.3627   4.3998   4.6268   4.7810   5.0673   5.2505   5.4883   5.6332
     5.8044

     occupation numbers 
     1.0000   1.0000   1.0000   1.0000   1.0000   1.0000   0.9937   0.9935
     0.0102   0.0000   0.0000   0.0000   0.0000   0.0000   0.0000   0.0000
     0.0000   0.0000   0.0000   0.0000   0.0000   0.0000   0.0000   0.0000
     0.0000   0.0000   0.0000   0.0000   0.0000   0.0000   0.0000   0.0000
     0.0000

          k = 0.2500-0.2500-0.1750 ( 19985 PWs)   bands (ev):

   -80.4769 -47.4316 -47.4316 -47.4154 -14.1266  -5.8307  -4.0564  -4.0551
    -3.5986  -0.7613  -0.6918   0.4899   0.9989   1.7348   1.8426   1.9018
     2.2940   2.3077   3.0624   3.1714   3.3145   3.7369   4.0130   4.1085
     4.2633   4.5314   4.7814   4.7935   4.9710   5.2796   5.4680   5.5882
     5.9222

     occupation numbers 
     1.0000   1.0000   1.0000   1.0000   1.0000   1.0000   0.9938   0.9935
     0.0119   0.0000   0.0000   0.0000   0.0000   0.0000   0.0000   0.0000
     0.0000   0.0000   0.0000   0.0000   0.0000   0.0000   0.0000   0.0000
     0.0000   0.0000   0.0000   0.0000   0.0000   0.0000   0.0000   0.0000
     0.0000

          k =-0.5000 0.0000 0.0000 ( 20022 PWs)   bands (ev):

   -80.4769 -47.4316 -47.4316 -47.4154 -14.1266  -5.8297  -4.0721  -4.0398
    -3.6030  -0.9810  -0.4044   0.7680   0.9326   1.1726   1.9331   1.9612
     2.1808   2.4773   3.1283   3.1374   3.4646   3.5456   4.0930   4.0964
     4.2382   4.4153   4.6628   4.8356   4.9704   5.2188   5.4471   5.7781
     5.7877

     occupation numbers 
     1.0000   1.0000   1.0000   1.0000   1.0000   1.0000   0.9961   0.9900
     0.0134   0.0000   0.0000   0.0000   0.0000   0.0000   0.0000   0.0000
     0.0000   0.0000   0.0000   0.0000   0.0000   0.0000   0.0000   0.0000
     0.0000   0.0000   0.0000   0.0000   0.0000   0.0000   0.0000   0.0000
     0.0000

          k =-0.5000 0.0000 0.1750 ( 19978 PWs)   bands (ev):

   -80.4769 -47.4316 -47.4316 -47.4154 -14.1266  -5.8306  -4.0719  -4.0397
    -3.5974  -0.9847  -0.4071   0.5832   1.0351   1.1990   1.8252   2.1963
     2.2021   2.6734   3.0066   3.2192   3.4901   3.5110   3.7840   4.1686
     4.2861   4.3778   4.4410   4.8193   4.9367   5.2908   5.4042   5.6575
     5.9162

     occupation numbers 
     1.0000   1.0000   1.0000   1.0000   1.0000   1.0000   0.9961   0.9900
     0.0115   0.0000   0.0000   0.0000   0.0000   0.0000   0.0000   0.0000
     0.0000   0.0000   0.0000   0.0000   0.0000   0.0000   0.0000   0.0000
     0.0000   0.0000   0.0000   0.0000   0.0000   0.0000   0.0000   0.0000
     0.0000

          k =-0.5000 0.0000-0.3500 ( 19976 PWs)   bands (ev):

   -80.4769 -47.4316 -47.4316 -47.4154 -14.1266  -5.8315  -4.0718  -4.0397
    -3.5918  -0.9884  -0.4098   0.4712   1.0784   1.2306   1.7358   2.2128
     2.4598   2.9182   2.9673   3.3406   3.3991   3.4883   3.6281   4.0065
     4.0759   4.1888   4.2076   5.1143   5.3638   5.4790   5.6098   5.6517
     5.6968

     occupation numbers 
     1.0000   1.0000   1.0000   1.0000   1.0000   1.0000   0.9961   0.9899
     0.0099   0.0000   0.0000   0.0000   0.0000   0.0000   0.0000   0.0000
     0.0000   0.0000   0.0000   0.0000   0.0000   0.0000   0.0000   0.0000
     0.0000   0.0000   0.0000   0.0000   0.0000   0.0000   0.0000   0.0000
     0.0000

          k =-0.5000 0.0000-0.1750 ( 19978 PWs)   bands (ev):

   -80.4769 -47.4316 -47.4316 -47.4154 -14.1266  -5.8306  -4.0719  -4.0397
    -3.5974  -0.9847  -0.4071   0.5832   1.0351   1.1990   1.8252   2.1963
     2.2021   2.6734   3.0066   3.2192   3.4901   3.5110   3.7840   4.1686
     4.2861   4.3778   4.4410   4.8193   4.9367   5.2908   5.4042   5.6575
     5.9162

     occupation numbers 
     1.0000   1.0000   1.0000   1.0000   1.0000   1.0000   0.9961   0.9900
     0.0115   0.0000   0.0000   0.0000   0.0000   0.0000   0.0000   0.0000
     0.0000   0.0000   0.0000   0.0000   0.0000   0.0000   0.0000   0.0000
     0.0000   0.0000   0.0000   0.0000   0.0000   0.0000   0.0000   0.0000
     0.0000

          k =-0.5000 0.2500 0.0000 ( 20020 PWs)   bands (ev):

   -80.4769 -47.4316 -47.4316 -47.4154 -14.1265  -5.8263  -4.0701  -4.0541
    -3.5852  -0.9241  -0.6680   0.8921   1.0620   1.3288   1.6448   2.2000
     2.2571   2.5426   2.9164   3.0371   3.1196   3.5431   3.6171   4.2239
     4.3406   4.6551   4.8050   5.0265   5.4674   5.5521   5.7118   5.8269
     5.9665

     occupation numbers 
     1.0000   1.0000   1.0000   1.0000   1.0000   1.0000   0.9959   0.9933
     0.0082   0.0000   0.0000   0.0000   0.0000   0.0000   0.0000   0.0000
     0.0000   0.0000   0.0000   0.0000   0.0000   0.0000   0.0000   0.0000
     0.0000   0.0000   0.0000   0.0000   0.0000   0.0000   0.0000   0.0000
     0.0000

          k =-0.5000 0.2500 0.1750 ( 19978 PWs)   bands (ev):

   -80.4769 -47.4316 -47.4316 -47.4154 -14.1265  -5.8272  -4.0699  -4.0540
    -3.5798  -0.9279  -0.6714   0.7202   1.1122   1.5041   1.5452   2.2712
     2.3541   2.4830   2.8114   3.1666   3.2157   3.6402   3.7741   4.1557
     4.2249   4.5786   4.5815   5.1309   5.3200   5.3223   5.5387   5.5588
     5.8433

     occupation numbers 
     1.0000   1.0000   1.0000   1.0000   1.0000   1.0000   0.9958   0.9933
     0.0070   0.0000   0.0000   0.0000   0.0000   0.0000   0.0000   0.0000
     0.0000   0.0000   0.0000   0.0000   0.0000   0.0000   0.0000   0.0000
     0.0000   0.0000   0.0000   0.0000   0.0000   0.0000   0.0000   0.0000
     0.0000

          k =-0.5000 0.2500-0.3500 ( 19992 PWs)   bands (ev):

   -80.4769 -47.4316 -47.4316 -47.4154 -14.1265  -5.8281  -4.0697  -4.0539
    -3.5745  -0.9317  -0.6748   0.6071   1.1940   1.4191   1.6325   2.2263
     2.3745   2.6782   2.7776   3.2462   3.2512   3.7226   3.9567   4.0257
     4.1275   4.4328   4.7224   4.8399   4.9383   5.2844   5.3626   5.7970
     5.9311

     occupation numbers 
     1.0000   1.0000   1.0000   1.0000   1.0000   1.0000   0.9958   0.9933
     0.0060   0.0000   0.0000   0.0000   0.0000   0.0000   0.0000   0.0000
     0.0000   0.0000   0.0000   0.0000   0.0000   0.0000   0.0000   0.0000
     0.0000   0.0000   0.0000   0.0000   0.0000   0.0000   0.0000   0.0000
     0.0000

          k =-0.5000 0.2500-0.1750 ( 19978 PWs)   bands (ev):

   -80.4769 -47.4316 -47.4316 -47.4154 -14.1265  -5.8272  -4.0699  -4.0540
    -3.5798  -0.9279  -0.6714   0.7202   1.1122   1.5041   1.5452   2.2712
     2.3541   2.4830   2.8114   3.1666   3.2157   3.6402   3.7741   4.1557
     4.2249   4.5786   4.5815   5.1309   5.3200   5.3223   5.5387   5.5588
     5.8433

     occupation numbers 
     1.0000   1.0000   1.0000   1.0000   1.0000   1.0000   0.9958   0.9933
     0.0070   0.0000   0.0000   0.0000   0.0000   0.0000   0.0000   0.0000
     0.0000   0.0000   0.0000   0.0000   0.0000   0.0000   0.0000   0.0000
     0.0000   0.0000   0.0000   0.0000   0.0000   0.0000   0.0000   0.0000
     0.0000

          k =-0.5000-0.5000 0.0000 ( 20028 PWs)   bands (ev):

   -80.4769 -47.4316 -47.4316 -47.4154 -14.1264  -5.8229  -4.0680  -4.0680
    -3.5672  -0.8579  -0.8579   0.8365   1.0518   1.7176   1.7176   2.0434
     2.5070   2.5814   2.5814   2.6957   3.4805   3.4805   3.6212   3.6385
     4.6901   4.7574   4.7574   4.7841   5.9391   5.9391   5.9881   6.0363
     6.2125

     occupation numbers 
     1.0000   1.0000   1.0000   1.0000   1.0000   1.0000   0.9956   0.9956
     0.0048   0.0000   0.0000   0.0000   0.0000   0.0000   0.0000   0.0000
     0.0000   0.0000   0.0000   0.0000   0.0000   0.0000   0.0000   0.0000
     0.0000   0.0000   0.0000   0.0000   0.0000   0.0000   0.0000   0.0000
     0.0000

          k =-0.5000-0.5000 0.1750 ( 19944 PWs)   bands (ev):

   -80.4769 -47.4316 -47.4316 -47.4154 -14.1264  -5.8238  -4.0679  -4.0679
    -3.5621  -0.8619  -0.8619   0.8658   0.9078   1.7492   1.7492   2.1048
     2.3294   2.5713   2.5713   3.3084   3.4729   3.4729   3.5424   3.6422
     4.6836   4.6836   4.7056   4.7574   5.3395   5.6462   5.9385   5.9683
     5.9683

     occupation numbers 
     1.0000   1.0000   1.0000   1.0000   1.0000   1.0000   0.9956   0.9956
     0.0041   0.0000   0.0000   0.0000   0.0000   0.0000   0.0000   0.0000
     0.0000   0.0000   0.0000   0.0000   0.0000   0.0000   0.0000   0.0000
     0.0000   0.0000   0.0000   0.0000   0.0000   0.0000   0.0000   0.0000
     0.0000

          k =-0.5000-0.5000-0.3500 ( 20000 PWs)   bands (ev):

   -80.4769 -47.4316 -47.4316 -47.4154 -14.1264  -5.8246  -4.0677  -4.0677
    -3.5569  -0.8660  -0.8660   0.7999   0.8994   1.7827   1.7827   1.9179
     2.5581   2.5581   2.6417   3.3958   3.4727   3.4727   3.6460   4.1067
     4.2264   4.5867   4.5867   4.8190   4.9189   5.2305   5.8609   6.0087
     6.0087

     occupation numbers 
     1.0000   1.0000   1.0000   1.0000   1.0000   1.0000   0.9956   0.9956
     0.0035   0.0000   0.0000   0.0000   0.0000   0.0000   0.0000   0.0000
     0.0000   0.0000   0.0000   0.0000   0.0000   0.0000   0.0000   0.0000
     0.0000   0.0000   0.0000   0.0000   0.0000   0.0000   0.0000   0.0000
     0.0000

          k =-0.5000-0.5000-0.1750 ( 19944 PWs)   bands (ev):

   -80.4769 -47.4316 -47.4316 -47.4154 -14.1264  -5.8238  -4.0679  -4.0679
    -3.5621  -0.8619  -0.8619   0.8658   0.9078   1.7492   1.7492   2.1048
     2.3294   2.5713   2.5713   3.3084   3.4729   3.4729   3.5424   3.6422
     4.6836   4.6836   4.7056   4.7574   5.3395   5.6462   5.9385   5.9683
     5.9683

     occupation numbers 
     1.0000   1.0000   1.0000   1.0000   1.0000   1.0000   0.9956   0.9956
     0.0041   0.0000   0.0000   0.0000   0.0000   0.0000   0.0000   0.0000
     0.0000   0.0000   0.0000   0.0000   0.0000   0.0000   0.0000   0.0000
     0.0000   0.0000   0.0000   0.0000   0.0000   0.0000   0.0000   0.0000
     0.0000

          k =-0.5000-0.2500 0.0000 ( 20020 PWs)   bands (ev):

   -80.4769 -47.4316 -47.4316 -47.4154 -14.1265  -5.8263  -4.0701  -4.0541
    -3.5852  -0.9241  -0.6680   0.8921   1.0620   1.3288   1.6448   2.2000
     2.2571   2.5426   2.9164   3.0371   3.1196   3.5431   3.6171   4.2239
     4.3406   4.6551   4.8050   5.0265   5.4674   5.5521   5.7118   5.8269
     5.9665

     occupation numbers 
     1.0000   1.0000   1.0000   1.0000   1.0000   1.0000   0.9959   0.9933
     0.0082   0.0000   0.0000   0.0000   0.0000   0.0000   0.0000   0.0000
     0.0000   0.0000   0.0000   0.0000   0.0000   0.0000   0.0000   0.0000
     0.0000   0.0000   0.0000   0.0000   0.0000   0.0000   0.0000   0.0000
     0.0000

          k =-0.5000-0.2500 0.1750 ( 19978 PWs)   bands (ev):

   -80.4769 -47.4316 -47.4316 -47.4154 -14.1265  -5.8272  -4.0699  -4.0540
    -3.5798  -0.9279  -0.6714   0.7202   1.1122   1.5041   1.5452   2.2712
     2.3541   2.4830   2.8114   3.1666   3.2157   3.6402   3.7741   4.1557
     4.2249   4.5786   4.5815   5.1309   5.3200   5.3223   5.5387   5.5588
     5.8433

     occupation numbers 
     1.0000   1.0000   1.0000   1.0000   1.0000   1.0000   0.9958   0.9933
     0.0070   0.0000   0.0000   0.0000   0.0000   0.0000   0.0000   0.0000
     0.0000   0.0000   0.0000   0.0000   0.0000   0.0000   0.0000   0.0000
     0.0000   0.0000   0.0000   0.0000   0.0000   0.0000   0.0000   0.0000
     0.0000

          k =-0.5000-0.2500-0.3500 ( 19992 PWs)   bands (ev):

   -80.4769 -47.4316 -47.4316 -47.4154 -14.1265  -5.8281  -4.0697  -4.0539
    -3.5745  -0.9317  -0.6748   0.6071   1.1940   1.4191   1.6325   2.2263
     2.3745   2.6782   2.7776   3.2462   3.2512   3.7226   3.9567   4.0257
     4.1275   4.4328   4.7224   4.8399   4.9383   5.2844   5.3626   5.7970
     5.9311

     occupation numbers 
     1.0000   1.0000   1.0000   1.0000   1.0000   1.0000   0.9958   0.9933
     0.0060   0.0000   0.0000   0.0000   0.0000   0.0000   0.0000   0.0000
     0.0000   0.0000   0.0000   0.0000   0.0000   0.0000   0.0000   0.0000
     0.0000   0.0000   0.0000   0.0000   0.0000   0.0000   0.0000   0.0000
     0.0000

          k =-0.5000-0.2500-0.1750 ( 19978 PWs)   bands (ev):

   -80.4769 -47.4316 -47.4316 -47.4154 -14.1265  -5.8272  -4.0699  -4.0540
    -3.5798  -0.9279  -0.6714   0.7202   1.1122   1.5041   1.5452   2.2712
     2.3541   2.4830   2.8114   3.1666   3.2157   3.6402   3.7741   4.1557
     4.2249   4.5786   4.5815   5.1309   5.3200   5.3223   5.5387   5.5588
     5.8433

     occupation numbers 
     1.0000   1.0000   1.0000   1.0000   1.0000   1.0000   0.9958   0.9933
     0.0070   0.0000   0.0000   0.0000   0.0000   0.0000   0.0000   0.0000
     0.0000   0.0000   0.0000   0.0000   0.0000   0.0000   0.0000   0.0000
     0.0000   0.0000   0.0000   0.0000   0.0000   0.0000   0.0000   0.0000
     0.0000

          k =-0.2500 0.0000 0.0000 ( 19968 PWs)   bands (ev):

   -80.4769 -47.4316 -47.4316 -47.4154 -14.1266  -5.8333  -4.0575  -4.0411
    -3.6231  -0.7756  -0.4335   0.5388   0.5830   1.5233   1.7031   2.1989
     2.4419   2.5411   3.0011   3.1427   3.1643   3.7887   4.1144   4.1373
     4.4678   4.4712   4.7524   4.9509   5.0920   5.1925   5.2870   5.5539
     5.6206

     occupation numbers 
     1.0000   1.0000   1.0000   1.0000   1.0000   1.0000   0.9940   0.9903
     0.0224   0.0000   0.0000   0.0000   0.0000   0.0000   0.0000   0.0000
     0.0000   0.0000   0.0000   0.0000   0.0000   0.0000   0.0000   0.0000
     0.0000   0.0000   0.0000   0.0000   0.0000   0.0000   0.0000   0.0000
     0.0000

          k =-0.2500 0.0000 0.1750 ( 19980 PWs)   bands (ev):

   -80.4769 -47.4316 -47.4316 -47.4154 -14.1266  -5.8343  -4.0574  -4.0410
    -3.6172  -0.7785  -0.4363   0.3377   0.7017   1.5891   1.8561   2.0769
     2.4680   2.7446   2.9363   3.0462   3.2768   3.7755   3.9565   4.2031
     4.3663   4.4371   4.6314   4.8683   4.8813   5.1516   5.3384   5.4158
     5.7054

     occupation numbers 
     1.0000   1.0000   1.0000   1.0000   1.0000   1.0000   0.9939   0.9903
     0.0194   0.0000   0.0000   0.0000   0.0000   0.0000   0.0000   0.0000
     0.0000   0.0000   0.0000   0.0000   0.0000   0.0000   0.0000   0.0000
     0.0000   0.0000   0.0000   0.0000   0.0000   0.0000   0.0000   0.0000
     0.0000

          k =-0.2500 0.0000-0.3500 ( 19962 PWs)   bands (ev):

   -80.4769 -47.4316 -47.4316 -47.4154 -14.1266  -5.8352  -4.0573  -4.0409
    -3.6113  -0.7814  -0.4392   0.2310   0.7427   1.6840   1.7626   2.3018
     2.4959   2.7191   3.0434   3.0940   3.3340   3.4290   3.8639   4.2049
     4.2681   4.3355   4.6522   4.7279   5.0321   5.1541   5.4946   5.6194
     5.8781

     occupation numbers 
     1.0000   1.0000   1.0000   1.0000   1.0000   1.0000   0.9939   0.9903
     0.0167   0.0000   0.0000   0.0000   0.0000   0.0000   0.0000   0.0000
     0.0000   0.0000   0.0000   0.0000   0.0000   0.0000   0.0000   0.0000
     0.0000   0.0000   0.0000   0.0000   0.0000   0.0000   0.0000   0.0000
     0.0000

          k =-0.2500 0.0000-0.1750 ( 19980 PWs)   bands (ev):

   -80.4769 -47.4316 -47.4316 -47.4154 -14.1266  -5.8343  -4.0574  -4.0410
    -3.6172  -0.7785  -0.4363   0.3377   0.7017   1.5891   1.8561   2.0769
     2.4680   2.7446   2.9363   3.0462   3.2768   3.7755   3.9565   4.2031
     4.3663   4.4371   4.6314   4.8683   4.8813   5.1516   5.3384   5.4158
     5.7054

     occupation numbers 
     1.0000   1.0000   1.0000   1.0000   1.0000   1.0000   0.9939   0.9903
     0.0194   0.0000   0.0000   0.0000   0.0000   0.0000   0.0000   0.0000
     0.0000   0.0000   0.0000   0.0000   0.0000   0.0000   0.0000   0.0000
     0.0000   0.0000   0.0000   0.0000   0.0000   0.0000   0.0000   0.0000
     0.0000

          k =-0.2500 0.2500 0.0000 ( 19983 PWs)   bands (ev):

   -80.4769 -47.4316 -47.4316 -47.4154 -14.1266  -5.8298  -4.0565  -4.0552
    -3.6042  -0.7584  -0.6883   0.6973   0.8311   1.6326   1.7798   2.0389
     2.2243   2.4212   2.7645   3.0304   3.5035   3.7116   4.0094   4.1405
     4.3730   4.5048   4.8212   5.0231   5.1026   5.3673   5.4362   5.6576
     5.8975

     occupation numbers 
     1.0000   1.0000   1.0000   1.0000   1.0000   1.0000   0.9938   0.9935
     0.0139   0.0000   0.0000   0.0000   0.0000   0.0000   0.0000   0.0000
     0.0000   0.0000   0.0000   0.0000   0.0000   0.0000   0.0000   0.0000
     0.0000   0.0000   0.0000   0.0000   0.0000   0.0000   0.0000   0.0000
     0.0000

          k =-0.2500 0.2500 0.1750 ( 19985 PWs)   bands (ev):

   -80.4769 -47.4316 -47.4316 -47.4154 -14.1266  -5.8307  -4.0564  -4.0551
    -3.5986  -0.7613  -0.6918   0.4899   0.9989   1.7348   1.8426   1.9018
     2.2940   2.3077   3.0624   3.1714   3.3145   3.7369   4.0130   4.1085
     4.2633   4.5314   4.7814   4.7935   4.9710   5.2796   5.4680   5.5882
     5.9222

     occupation numbers 
     1.0000   1.0000   1.0000   1.0000   1.0000   1.0000   0.9938   0.9935
     0.0119   0.0000   0.0000   0.0000   0.0000   0.0000   0.0000   0.0000
     0.0000   0.0000   0.0000   0.0000   0.0000   0.0000   0.0000   0.0000
     0.0000   0.0000   0.0000   0.0000   0.0000   0.0000   0.0000   0.0000
     0.0000

          k =-0.2500 0.2500-0.3500 ( 19980 PWs)   bands (ev):

   -80.4769 -47.4316 -47.4316 -47.4154 -14.1266  -5.8316  -4.0562  -4.0550
    -3.5930  -0.7641  -0.6953   0.3775   1.0903   1.7383   1.8247   1.9543
     2.1333   2.5837   3.1019   3.3278   3.3397   3.7235   3.7681   4.0213
     4.3627   4.3998   4.6268   4.7810   5.0673   5.2505   5.4883   5.6332
     5.8044

     occupation numbers 
     1.0000   1.0000   1.0000   1.0000   1.0000   1.0000   0.9937   0.9935
     0.0102   0.0000   0.0000   0.0000   0.0000   0.0000   0.0000   0.0000
     0.0000   0.0000   0.0000   0.0000   0.0000   0.0000   0.0000   0.0000
     0.0000   0.0000   0.0000   0.0000   0.0000   0.0000   0.0000   0.0000
     0.0000

          k =-0.2500 0.2500-0.1750 ( 19985 PWs)   bands (ev):

   -80.4769 -47.4316 -47.4316 -47.4154 -14.1266  -5.8307  -4.0564  -4.0551
    -3.5986  -0.7613  -0.6918   0.4899   0.9989   1.7348   1.8426   1.9018
     2.2940   2.3077   3.0624   3.1714   3.3145   3.7369   4.0130   4.1085
     4.2633   4.5314   4.7814   4.7935   4.9710   5.2796   5.4680   5.5882
     5.9222

     occupation numbers 
     1.0000   1.0000   1.0000   1.0000   1.0000   1.0000   0.9938   0.9935
     0.0119   0.0000   0.0000   0.0000   0.0000   0.0000   0.0000   0.0000
     0.0000   0.0000   0.0000   0.0000   0.0000   0.0000   0.0000   0.0000
     0.0000   0.0000   0.0000   0.0000   0.0000   0.0000   0.0000   0.0000
     0.0000

          k =-0.2500-0.5000 0.0000 ( 20020 PWs)   bands (ev):

   -80.4769 -47.4316 -47.4316 -47.4154 -14.1265  -5.8263  -4.0701  -4.0541
    -3.5852  -0.9241  -0.6680   0.8921   1.0620   1.3288   1.6448   2.2000
     2.2571   2.5426   2.9164   3.0371   3.1196   3.5431   3.6171   4.2239
     4.3406   4.6551   4.8050   5.0265   5.4674   5.5521   5.7118   5.8269
     5.9665

     occupation numbers 
     1.0000   1.0000   1.0000   1.0000   1.0000   1.0000   0.9959   0.9933
     0.0082   0.0000   0.0000   0.0000   0.0000   0.0000   0.0000   0.0000
     0.0000   0.0000   0.0000   0.0000   0.0000   0.0000   0.0000   0.0000
     0.0000   0.0000   0.0000   0.0000   0.0000   0.0000   0.0000   0.0000
     0.0000

          k =-0.2500-0.5000 0.1750 ( 19978 PWs)   bands (ev):

   -80.4769 -47.4316 -47.4316 -47.4154 -14.1265  -5.8272  -4.0699  -4.0540
    -3.5798  -0.9279  -0.6714   0.7202   1.1122   1.5041   1.5452   2.2712
     2.3541   2.4830   2.8114   3.1666   3.2157   3.6402   3.7741   4.1557
     4.2249   4.5786   4.5815   5.1309   5.3200   5.3223   5.5387   5.5588
     5.8433

     occupation numbers 
     1.0000   1.0000   1.0000   1.0000   1.0000   1.0000   0.9958   0.9933
     0.0070   0.0000   0.0000   0.0000   0.0000   0.0000   0.0000   0.0000
     0.0000   0.0000   0.0000   0.0000   0.0000   0.0000   0.0000   0.0000
     0.0000   0.0000   0.0000   0.0000   0.0000   0.0000   0.0000   0.0000
     0.0000

          k =-0.2500-0.5000-0.3500 ( 19992 PWs)   bands (ev):

   -80.4769 -47.4316 -47.4316 -47.4154 -14.1265  -5.8281  -4.0697  -4.0539
    -3.5745  -0.9317  -0.6748   0.6071   1.1940   1.4191   1.6325   2.2263
     2.3745   2.6782   2.7776   3.2462   3.2512   3.7226   3.9567   4.0257
     4.1275   4.4328   4.7224   4.8399   4.9383   5.2844   5.3626   5.7970
     5.9311

     occupation numbers 
     1.0000   1.0000   1.0000   1.0000   1.0000   1.0000   0.9958   0.9933
     0.0060   0.0000   0.0000   0.0000   0.0000   0.0000   0.0000   0.0000
     0.0000   0.0000   0.0000   0.0000   0.0000   0.0000   0.0000   0.0000
     0.0000   0.0000   0.0000   0.0000   0.0000   0.0000   0.0000   0.0000
     0.0000

          k =-0.2500-0.5000-0.1750 ( 19978 PWs)   bands (ev):

   -80.4769 -47.4316 -47.4316 -47.4154 -14.1265  -5.8272  -4.0699  -4.0540
    -3.5798  -0.9279  -0.6714   0.7202   1.1122   1.5041   1.5452   2.2712
     2.3541   2.4830   2.8114   3.1666   3.2157   3.6402   3.7741   4.1557
     4.2249   4.5786   4.5815   5.1309   5.3200   5.3223   5.5387   5.5588
     5.8433

     occupation numbers 
     1.0000   1.0000   1.0000   1.0000   1.0000   1.0000   0.9958   0.9933
     0.0070   0.0000   0.0000   0.0000   0.0000   0.0000   0.0000   0.0000
     0.0000   0.0000   0.0000   0.0000   0.0000   0.0000   0.0000   0.0000
     0.0000   0.0000   0.0000   0.0000   0.0000   0.0000   0.0000   0.0000
     0.0000

          k =-0.2500-0.2500 0.0000 ( 19983 PWs)   bands (ev):

   -80.4769 -47.4316 -47.4316 -47.4154 -14.1266  -5.8298  -4.0565  -4.0552
    -3.6042  -0.7584  -0.6883   0.6973   0.8311   1.6326   1.7798   2.0389
     2.2243   2.4212   2.7645   3.0304   3.5035   3.7116   4.0094   4.1405
     4.3730   4.5048   4.8212   5.0231   5.1026   5.3673   5.4362   5.6576
     5.8975

     occupation numbers 
     1.0000   1.0000   1.0000   1.0000   1.0000   1.0000   0.9938   0.9935
     0.0139   0.0000   0.0000   0.0000   0.0000   0.0000   0.0000   0.0000
     0.0000   0.0000   0.0000   0.0000   0.0000   0.0000   0.0000   0.0000
     0.0000   0.0000   0.0000   0.0000   0.0000   0.0000   0.0000   0.0000
     0.0000

          k =-0.2500-0.2500 0.1750 ( 19985 PWs)   bands (ev):

   -80.4769 -47.4316 -47.4316 -47.4154 -14.1266  -5.8307  -4.0564  -4.0551
    -3.5986  -0.7613  -0.6918   0.4899   0.9989   1.7348   1.8426   1.9018
     2.2940   2.3077   3.0624   3.1714   3.3145   3.7369   4.0130   4.1085
     4.2633   4.5314   4.7814   4.7935   4.9710   5.2796   5.4680   5.5882
     5.9222

     occupation numbers 
     1.0000   1.0000   1.0000   1.0000   1.0000   1.0000   0.9938   0.9935
     0.0119   0.0000   0.0000   0.0000   0.0000   0.0000   0.0000   0.0000
     0.0000   0.0000   0.0000   0.0000   0.0000   0.0000   0.0000   0.0000
     0.0000   0.0000   0.0000   0.0000   0.0000   0.0000   0.0000   0.0000
     0.0000

          k =-0.2500-0.2500-0.3500 ( 19980 PWs)   bands (ev):

   -80.4769 -47.4316 -47.4316 -47.4154 -14.1266  -5.8316  -4.0562  -4.0550
    -3.5930  -0.7641  -0.6953   0.3775   1.0903   1.7383   1.8247   1.9543
     2.1333   2.5837   3.1019   3.3278   3.3397   3.7235   3.7681   4.0213
     4.3627   4.3998   4.6268   4.7810   5.0673   5.2505   5.4883   5.6332
     5.8044

     occupation numbers 
     1.0000   1.0000   1.0000   1.0000   1.0000   1.0000   0.9937   0.9935
     0.0102   0.0000   0.0000   0.0000   0.0000   0.0000   0.0000   0.0000
     0.0000   0.0000   0.0000   0.0000   0.0000   0.0000   0.0000   0.0000
     0.0000   0.0000   0.0000   0.0000   0.0000   0.0000   0.0000   0.0000
     0.0000

          k =-0.2500-0.2500-0.1750 ( 19985 PWs)   bands (ev):

   -80.4769 -47.4316 -47.4316 -47.4154 -14.1266  -5.8307  -4.0564  -4.0551
    -3.5986  -0.7613  -0.6918   0.4899   0.9989   1.7348   1.8426   1.9018
     2.2940   2.3077   3.0624   3.1714   3.3145   3.7369   4.0130   4.1085
     4.2633   4.5314   4.7814   4.7935   4.9710   5.2796   5.4680   5.5882
     5.9222

     occupation numbers 
     1.0000   1.0000   1.0000   1.0000   1.0000   1.0000   0.9938   0.9935
     0.0119   0.0000   0.0000   0.0000   0.0000   0.0000   0.0000   0.0000
     0.0000   0.0000   0.0000   0.0000   0.0000   0.0000   0.0000   0.0000
     0.0000   0.0000   0.0000   0.0000   0.0000   0.0000   0.0000   0.0000
     0.0000

     the Fermi energy is    -3.8160 ev

     Writing output data file /wrk/kfg/julia_data/MgS/dimer.in_vnscf_coords_6/qe.nscf.save/
 
     init_run     :      0.81s CPU      0.90s WALL (       1 calls)
     electrons    :    120.13s CPU    126.97s WALL (       1 calls)

     Called by init_run:
     wfcinit      :      0.00s CPU      0.00s WALL (       1 calls)
     wfcinit:atom :      0.04s CPU      0.05s WALL (      64 calls)
     wfcinit:wfcr :      3.51s CPU      3.78s WALL (      64 calls)
     potinit      :      0.06s CPU      0.08s WALL (       1 calls)
     hinit0       :      0.49s CPU      0.51s WALL (       1 calls)

     Called by electrons:
     c_bands      :    120.13s CPU    126.96s WALL (       1 calls)
     v_of_rho     :      0.05s CPU      0.06s WALL (       1 calls)
     v_h          :      0.00s CPU      0.00s WALL (       1 calls)
     v_xc         :      0.05s CPU      0.06s WALL (       1 calls)
     newd         :      0.19s CPU      0.24s WALL (       1 calls)

     Called by c_bands:
     init_us_2    :      0.10s CPU      0.11s WALL (      64 calls)
     cegterg      :    115.66s CPU    122.19s WALL (     161 calls)

     Called by sum_band:

     Called by *egterg:
     h_psi        :     66.98s CPU     73.01s WALL (    2960 calls)
     s_psi        :      2.61s CPU      2.67s WALL (    2960 calls)
     g_psi        :      1.20s CPU      1.20s WALL (    2735 calls)
     cdiaghg      :     15.91s CPU     16.16s WALL (    2799 calls)
     cegterg:over :     12.50s CPU     12.60s WALL (    2735 calls)
     cegterg:upda :     10.19s CPU     10.35s WALL (    2735 calls)
     cegterg:last :      7.25s CPU      7.28s WALL (     517 calls)
     cdiaghg:chol :      0.82s CPU      0.83s WALL (    2799 calls)
     cdiaghg:inve :      0.19s CPU      0.20s WALL (    2799 calls)
     cdiaghg:para :      1.96s CPU      2.09s WALL (    5598 calls)

     Called by h_psi:
     h_psi:calbec :      3.06s CPU      3.18s WALL (    2960 calls)
     vloc_psi     :     60.96s CPU     66.72s WALL (    2960 calls)
     add_vuspsi   :      2.58s CPU      2.61s WALL (    2960 calls)

     General routines
     calbec       :      3.05s CPU      3.17s WALL (    2960 calls)
     fft          :      0.02s CPU      0.03s WALL (      13 calls)
     ffts         :      0.00s CPU      0.00s WALL (       1 calls)
     fftw         :     55.09s CPU     60.39s WALL (   95922 calls)
     interpolate  :      0.00s CPU      0.00s WALL (       1 calls)
 
     Parallel routines
     fft_scatt_xy :      5.93s CPU      6.57s WALL (   95936 calls)
     fft_scatt_yz :     19.74s CPU     21.72s WALL (   95936 calls)
 
     PWSCF        :   2m 1.48s CPU   2m 9.73s WALL

 
   This run was terminated on:  21:38:27  16Apr2020            

=------------------------------------------------------------------------------=
   JOB DONE.
=------------------------------------------------------------------------------=
