
     Program PWSCF v.6.5 starts on 16Apr2020 at 21:25:34 

     This program is part of the open-source Quantum ESPRESSO suite
     for quantum simulation of materials; please cite
         "P. Giannozzi et al., J. Phys.:Condens. Matter 21 395502 (2009);
         "P. Giannozzi et al., J. Phys.:Condens. Matter 29 465901 (2017);
          URL http://www.quantum-espresso.org", 
     in publications or presentations arising from this work. More details at
     http://www.quantum-espresso.org/quote

     Parallel version (MPI), running on     8 processors

     MPI processes distributed on     1 nodes
     R & G space division:  proc/nbgrp/npool/nimage =       8
     Reading input from /wrk/kfg/julia_data/MgS/dimer.in_vnscf_coords_3/qe.nscf.in
Warning: card &IONS ignored
Warning: card   ION_DYNAMICS='BFGS', ignored
Warning: card / ignored
Warning: card &CELL ignored
Warning: card  CELL_DYNAMICS = 'BFGS' ignored
Warning: card  CELL_DOFREE = 'ALL' ignored
Warning: card  CELL_FACTOR = 1.0 ignored
Warning: card / ignored
     Message from routine read_cards :
     DEPRECATED: no units specified in CELL_PARAMETERS card

     Current dimensions of program PWSCF are:
     Max number of different atomic species (ntypx) = 10
     Max number of k-points (npk) =  40000
     Max angular momentum in pseudopotentials (lmaxx) =  3

     Atomic positions and unit cell read from directory:
     /wrk/kfg/julia_data/MgS/dimer.in_vnscf_coords_3/qe.nscf.save/                                                                                                                                                                                                   
 
               file mg.pbesol.UPF: wavefunction(s)  3P renormalized

     Subspace diagonalization in iterative solution of the eigenvalue problem:
     one sub-group per band group will be used
     scalapack distributed-memory algorithm (size of sub-group:  2*  2 procs)

 
     Parallelization info
     --------------------
     sticks:   dense  smooth     PW     G-vecs:    dense   smooth      PW
     Min         487     350     97                32720    19990    2917
     Max         490     351     98                32721    19993    2920
     Sum        3909    2801    777               261761   159925   23349
 


     bravais-lattice index     =            0
     lattice parameter (alat)  =      14.0000  a.u.
     unit-cell volume          =    3920.0000 (a.u.)^3
     number of atoms/cell      =            2
     number of atomic types    =            2
     number of electrons       =        16.00
     number of Kohn-Sham states=           33
     kinetic-energy cutoff     =      45.0000  Ry
     charge density cutoff     =     250.0000  Ry
     Exchange-correlation= SLA  PW   PSX  PSC
                           (   1   4  10   8   0   0   0)
     A smooth kinetic-energy cutoff is imposed at      44.5000 Ry
     height of the smooth step-function =             800.0000 Ry
     width of the smooth step-function  =               1.0000 Ry


     celldm(1)=  14.000000  celldm(2)=   0.000000  celldm(3)=   0.000000
     celldm(4)=   0.000000  celldm(5)=   0.000000  celldm(6)=   0.000000

     crystal axes: (cart. coord. in units of alat)
               a(1) = (   1.000000   0.000000   0.000000 )  
               a(2) = (   0.000000   1.000000   0.000000 )  
               a(3) = (   0.000000   0.000000   1.428571 )  

     reciprocal axes: (cart. coord. in units 2 pi/alat)
               b(1) = (  1.000000  0.000000  0.000000 )  
               b(2) = (  0.000000  1.000000  0.000000 )  
               b(3) = (  0.000000  0.000000  0.700000 )  


     PseudoPot. # 1 for Mg read from file:
     /home/kfg/psuedo/gbrv_1.5/mg.pbesol.UPF
     MD5 check sum: cbba17e5274afd115179030b10be074e
     Pseudo is Ultrasoft, Zval = 10.0
     Generated by new atomic code, or converted to UPF format
     Using radial grid of  821 points,  7 beta functions with: 
                l(1) =   0
                l(2) =   0
                l(3) =   0
                l(4) =   1
                l(5) =   1
                l(6) =   2
                l(7) =   2
     Q(r) pseudized with  8 coefficients,  rinner =    1.200   1.200   1.200
                                                       1.200   1.200

     PseudoPot. # 2 for S  read from file:
     /home/kfg/psuedo/gbrv_1.5/s.pbesol.UPF
     MD5 check sum: 0ccfa86ec6eb59065d10aaae963ef2a7
     Pseudo is Ultrasoft + core correction, Zval =  6.0
     Generated by new atomic code, or converted to UPF format
     Using radial grid of  907 points,  6 beta functions with: 
                l(1) =   0
                l(2) =   0
                l(3) =   1
                l(4) =   1
                l(5) =   2
                l(6) =   2
     Q(r) pseudized with  8 coefficients,  rinner =    1.300   1.300   1.300
                                                       1.300   1.300

     atomic species   valence    mass     pseudopotential
        Mg            10.00    24.31000     Mg( 1.00)
        S              6.00    32.06000     S ( 1.00)

     No symmetry found


                                    s                        frac. trans.

      isym =  1     identity                                     

 cryst.   s( 1) = (     1          0          0      )
                  (     0          1          0      )
                  (     0          0          1      )

 cart.    s( 1) = (  1.0000000  0.0000000  0.0000000 )
                  (  0.0000000  1.0000000  0.0000000 )
                  (  0.0000000  0.0000000  1.0000000 )


   Cartesian axes

     site n.     atom                  positions (alat units)
         1           Mg  tau(   1) = (   0.0000000   0.0000000  -0.1343017  )
         2           S   tau(   2) = (   0.0000000   0.0000000   0.1343017  )

   Crystallographic axes

     site n.     atom                  positions (cryst. coord.)
         1           Mg  tau(   1) = (  0.0000000  0.0000000 -0.0940112  )
         2           S   tau(   2) = (  0.0000000  0.0000000  0.0940112  )

     number of k points=    64  Gaussian smearing, width (Ry)=  0.0100
                       cart. coord. in units 2pi/alat
        k(    1) = (   0.0000000   0.0000000   0.0000000), wk =   0.0312500
        k(    2) = (   0.0000000   0.0000000   0.1750000), wk =   0.0312500
        k(    3) = (   0.0000000   0.0000000  -0.3500000), wk =   0.0312500
        k(    4) = (   0.0000000   0.0000000  -0.1750000), wk =   0.0312500
        k(    5) = (   0.0000000   0.2500000   0.0000000), wk =   0.0312500
        k(    6) = (   0.0000000   0.2500000   0.1750000), wk =   0.0312500
        k(    7) = (   0.0000000   0.2500000  -0.3500000), wk =   0.0312500
        k(    8) = (   0.0000000   0.2500000  -0.1750000), wk =   0.0312500
        k(    9) = (   0.0000000  -0.5000000   0.0000000), wk =   0.0312500
        k(   10) = (   0.0000000  -0.5000000   0.1750000), wk =   0.0312500
        k(   11) = (   0.0000000  -0.5000000  -0.3500000), wk =   0.0312500
        k(   12) = (   0.0000000  -0.5000000  -0.1750000), wk =   0.0312500
        k(   13) = (   0.0000000  -0.2500000   0.0000000), wk =   0.0312500
        k(   14) = (   0.0000000  -0.2500000   0.1750000), wk =   0.0312500
        k(   15) = (   0.0000000  -0.2500000  -0.3500000), wk =   0.0312500
        k(   16) = (   0.0000000  -0.2500000  -0.1750000), wk =   0.0312500
        k(   17) = (   0.2500000   0.0000000   0.0000000), wk =   0.0312500
        k(   18) = (   0.2500000   0.0000000   0.1750000), wk =   0.0312500
        k(   19) = (   0.2500000   0.0000000  -0.3500000), wk =   0.0312500
        k(   20) = (   0.2500000   0.0000000  -0.1750000), wk =   0.0312500
        k(   21) = (   0.2500000   0.2500000   0.0000000), wk =   0.0312500
        k(   22) = (   0.2500000   0.2500000   0.1750000), wk =   0.0312500
        k(   23) = (   0.2500000   0.2500000  -0.3500000), wk =   0.0312500
        k(   24) = (   0.2500000   0.2500000  -0.1750000), wk =   0.0312500
        k(   25) = (   0.2500000  -0.5000000   0.0000000), wk =   0.0312500
        k(   26) = (   0.2500000  -0.5000000   0.1750000), wk =   0.0312500
        k(   27) = (   0.2500000  -0.5000000  -0.3500000), wk =   0.0312500
        k(   28) = (   0.2500000  -0.5000000  -0.1750000), wk =   0.0312500
        k(   29) = (   0.2500000  -0.2500000   0.0000000), wk =   0.0312500
        k(   30) = (   0.2500000  -0.2500000   0.1750000), wk =   0.0312500
        k(   31) = (   0.2500000  -0.2500000  -0.3500000), wk =   0.0312500
        k(   32) = (   0.2500000  -0.2500000  -0.1750000), wk =   0.0312500
        k(   33) = (  -0.5000000   0.0000000   0.0000000), wk =   0.0312500
        k(   34) = (  -0.5000000   0.0000000   0.1750000), wk =   0.0312500
        k(   35) = (  -0.5000000   0.0000000  -0.3500000), wk =   0.0312500
        k(   36) = (  -0.5000000   0.0000000  -0.1750000), wk =   0.0312500
        k(   37) = (  -0.5000000   0.2500000   0.0000000), wk =   0.0312500
        k(   38) = (  -0.5000000   0.2500000   0.1750000), wk =   0.0312500
        k(   39) = (  -0.5000000   0.2500000  -0.3500000), wk =   0.0312500
        k(   40) = (  -0.5000000   0.2500000  -0.1750000), wk =   0.0312500
        k(   41) = (  -0.5000000  -0.5000000   0.0000000), wk =   0.0312500
        k(   42) = (  -0.5000000  -0.5000000   0.1750000), wk =   0.0312500
        k(   43) = (  -0.5000000  -0.5000000  -0.3500000), wk =   0.0312500
        k(   44) = (  -0.5000000  -0.5000000  -0.1750000), wk =   0.0312500
        k(   45) = (  -0.5000000  -0.2500000   0.0000000), wk =   0.0312500
        k(   46) = (  -0.5000000  -0.2500000   0.1750000), wk =   0.0312500
        k(   47) = (  -0.5000000  -0.2500000  -0.3500000), wk =   0.0312500
        k(   48) = (  -0.5000000  -0.2500000  -0.1750000), wk =   0.0312500
        k(   49) = (  -0.2500000   0.0000000   0.0000000), wk =   0.0312500
        k(   50) = (  -0.2500000   0.0000000   0.1750000), wk =   0.0312500
        k(   51) = (  -0.2500000   0.0000000  -0.3500000), wk =   0.0312500
        k(   52) = (  -0.2500000   0.0000000  -0.1750000), wk =   0.0312500
        k(   53) = (  -0.2500000   0.2500000   0.0000000), wk =   0.0312500
        k(   54) = (  -0.2500000   0.2500000   0.1750000), wk =   0.0312500
        k(   55) = (  -0.2500000   0.2500000  -0.3500000), wk =   0.0312500
        k(   56) = (  -0.2500000   0.2500000  -0.1750000), wk =   0.0312500
        k(   57) = (  -0.2500000  -0.5000000   0.0000000), wk =   0.0312500
        k(   58) = (  -0.2500000  -0.5000000   0.1750000), wk =   0.0312500
        k(   59) = (  -0.2500000  -0.5000000  -0.3500000), wk =   0.0312500
        k(   60) = (  -0.2500000  -0.5000000  -0.1750000), wk =   0.0312500
        k(   61) = (  -0.2500000  -0.2500000   0.0000000), wk =   0.0312500
        k(   62) = (  -0.2500000  -0.2500000   0.1750000), wk =   0.0312500
        k(   63) = (  -0.2500000  -0.2500000  -0.3500000), wk =   0.0312500
        k(   64) = (  -0.2500000  -0.2500000  -0.1750000), wk =   0.0312500

                       cryst. coord.
        k(    1) = (   0.0000000   0.0000000   0.0000000), wk =   0.0312500
        k(    2) = (   0.0000000   0.0000000   0.2500000), wk =   0.0312500
        k(    3) = (   0.0000000   0.0000000  -0.5000000), wk =   0.0312500
        k(    4) = (   0.0000000   0.0000000  -0.2500000), wk =   0.0312500
        k(    5) = (   0.0000000   0.2500000   0.0000000), wk =   0.0312500
        k(    6) = (   0.0000000   0.2500000   0.2500000), wk =   0.0312500
        k(    7) = (   0.0000000   0.2500000  -0.5000000), wk =   0.0312500
        k(    8) = (   0.0000000   0.2500000  -0.2500000), wk =   0.0312500
        k(    9) = (   0.0000000  -0.5000000   0.0000000), wk =   0.0312500
        k(   10) = (   0.0000000  -0.5000000   0.2500000), wk =   0.0312500
        k(   11) = (   0.0000000  -0.5000000  -0.5000000), wk =   0.0312500
        k(   12) = (   0.0000000  -0.5000000  -0.2500000), wk =   0.0312500
        k(   13) = (   0.0000000  -0.2500000   0.0000000), wk =   0.0312500
        k(   14) = (   0.0000000  -0.2500000   0.2500000), wk =   0.0312500
        k(   15) = (   0.0000000  -0.2500000  -0.5000000), wk =   0.0312500
        k(   16) = (   0.0000000  -0.2500000  -0.2500000), wk =   0.0312500
        k(   17) = (   0.2500000   0.0000000   0.0000000), wk =   0.0312500
        k(   18) = (   0.2500000   0.0000000   0.2500000), wk =   0.0312500
        k(   19) = (   0.2500000   0.0000000  -0.5000000), wk =   0.0312500
        k(   20) = (   0.2500000   0.0000000  -0.2500000), wk =   0.0312500
        k(   21) = (   0.2500000   0.2500000   0.0000000), wk =   0.0312500
        k(   22) = (   0.2500000   0.2500000   0.2500000), wk =   0.0312500
        k(   23) = (   0.2500000   0.2500000  -0.5000000), wk =   0.0312500
        k(   24) = (   0.2500000   0.2500000  -0.2500000), wk =   0.0312500
        k(   25) = (   0.2500000  -0.5000000   0.0000000), wk =   0.0312500
        k(   26) = (   0.2500000  -0.5000000   0.2500000), wk =   0.0312500
        k(   27) = (   0.2500000  -0.5000000  -0.5000000), wk =   0.0312500
        k(   28) = (   0.2500000  -0.5000000  -0.2500000), wk =   0.0312500
        k(   29) = (   0.2500000  -0.2500000   0.0000000), wk =   0.0312500
        k(   30) = (   0.2500000  -0.2500000   0.2500000), wk =   0.0312500
        k(   31) = (   0.2500000  -0.2500000  -0.5000000), wk =   0.0312500
        k(   32) = (   0.2500000  -0.2500000  -0.2500000), wk =   0.0312500
        k(   33) = (  -0.5000000   0.0000000   0.0000000), wk =   0.0312500
        k(   34) = (  -0.5000000   0.0000000   0.2500000), wk =   0.0312500
        k(   35) = (  -0.5000000   0.0000000  -0.5000000), wk =   0.0312500
        k(   36) = (  -0.5000000   0.0000000  -0.2500000), wk =   0.0312500
        k(   37) = (  -0.5000000   0.2500000   0.0000000), wk =   0.0312500
        k(   38) = (  -0.5000000   0.2500000   0.2500000), wk =   0.0312500
        k(   39) = (  -0.5000000   0.2500000  -0.5000000), wk =   0.0312500
        k(   40) = (  -0.5000000   0.2500000  -0.2500000), wk =   0.0312500
        k(   41) = (  -0.5000000  -0.5000000   0.0000000), wk =   0.0312500
        k(   42) = (  -0.5000000  -0.5000000   0.2500000), wk =   0.0312500
        k(   43) = (  -0.5000000  -0.5000000  -0.5000000), wk =   0.0312500
        k(   44) = (  -0.5000000  -0.5000000  -0.2500000), wk =   0.0312500
        k(   45) = (  -0.5000000  -0.2500000   0.0000000), wk =   0.0312500
        k(   46) = (  -0.5000000  -0.2500000   0.2500000), wk =   0.0312500
        k(   47) = (  -0.5000000  -0.2500000  -0.5000000), wk =   0.0312500
        k(   48) = (  -0.5000000  -0.2500000  -0.2500000), wk =   0.0312500
        k(   49) = (  -0.2500000   0.0000000   0.0000000), wk =   0.0312500
        k(   50) = (  -0.2500000   0.0000000   0.2500000), wk =   0.0312500
        k(   51) = (  -0.2500000   0.0000000  -0.5000000), wk =   0.0312500
        k(   52) = (  -0.2500000   0.0000000  -0.2500000), wk =   0.0312500
        k(   53) = (  -0.2500000   0.2500000   0.0000000), wk =   0.0312500
        k(   54) = (  -0.2500000   0.2500000   0.2500000), wk =   0.0312500
        k(   55) = (  -0.2500000   0.2500000  -0.5000000), wk =   0.0312500
        k(   56) = (  -0.2500000   0.2500000  -0.2500000), wk =   0.0312500
        k(   57) = (  -0.2500000  -0.5000000   0.0000000), wk =   0.0312500
        k(   58) = (  -0.2500000  -0.5000000   0.2500000), wk =   0.0312500
        k(   59) = (  -0.2500000  -0.5000000  -0.5000000), wk =   0.0312500
        k(   60) = (  -0.2500000  -0.5000000  -0.2500000), wk =   0.0312500
        k(   61) = (  -0.2500000  -0.2500000   0.0000000), wk =   0.0312500
        k(   62) = (  -0.2500000  -0.2500000   0.2500000), wk =   0.0312500
        k(   63) = (  -0.2500000  -0.2500000  -0.5000000), wk =   0.0312500
        k(   64) = (  -0.2500000  -0.2500000  -0.2500000), wk =   0.0312500

     Dense  grid:   261761 G-vectors     FFT dimensions: (  72,  72, 108)

     Smooth grid:   159925 G-vectors     FFT dimensions: (  60,  60,  90)

     Dynamical RAM for                 wfc:       1.26 MB

     Dynamical RAM for     wfc (w. buffer):      81.73 MB

     Dynamical RAM for           str. fact:       1.00 MB

     Dynamical RAM for           local pot:       0.00 MB

     Dynamical RAM for          nlocal pot:       1.41 MB

     Dynamical RAM for                qrad:       7.53 MB

     Dynamical RAM for          rho,v,vnew:       3.16 MB

     Dynamical RAM for           G-vectors:       2.02 MB

     Dynamical RAM for          h,s,v(r/c):       0.20 MB

     Dynamical RAM for          <psi|beta>:       0.02 MB

     Dynamical RAM for                 psi:       5.03 MB

     Dynamical RAM for                hpsi:       5.03 MB

     Dynamical RAM for                spsi:       5.03 MB

     Dynamical RAM for      wfcinit/wfcrot:       2.54 MB

     Dynamical RAM for           addusdens:     102.85 MB

     Estimated static dynamical RAM per process >     101.12 MB

     Estimated max dynamical RAM per process >     203.97 MB

     Estimated total dynamical RAM >       1.59 GB

     The potential is recalculated from file :
     /wrk/kfg/julia_data/MgS/dimer.in_vnscf_coords_3/qe.nscf.save/charge-density


     negative rho (up, down):  6.787E-05 0.000E+00
     Starting wfcs are   12 randomized atomic wfcs +   21 random wfcs

     Band Structure Calculation
     Davidson diagonalization with overlap

     Computing kpt #:     1  of    64
     total cpu time spent up to now is        3.1 secs

     Computing kpt #:     2  of    64
     total cpu time spent up to now is        5.1 secs

     Computing kpt #:     3  of    64
     total cpu time spent up to now is        7.3 secs

     Computing kpt #:     4  of    64
     total cpu time spent up to now is        9.1 secs

     Computing kpt #:     5  of    64
     total cpu time spent up to now is       11.7 secs

     Computing kpt #:     6  of    64
     total cpu time spent up to now is       13.5 secs

     Computing kpt #:     7  of    64
     total cpu time spent up to now is       15.9 secs

     Computing kpt #:     8  of    64
     total cpu time spent up to now is       17.8 secs

     Computing kpt #:     9  of    64
     total cpu time spent up to now is       19.6 secs

     Computing kpt #:    10  of    64
     total cpu time spent up to now is       21.5 secs

     Computing kpt #:    11  of    64
     total cpu time spent up to now is       23.7 secs

     Computing kpt #:    12  of    64
     total cpu time spent up to now is       25.6 secs

     Computing kpt #:    13  of    64
     total cpu time spent up to now is       28.1 secs

     Computing kpt #:    14  of    64
     total cpu time spent up to now is       30.0 secs

     Computing kpt #:    15  of    64
     total cpu time spent up to now is       32.4 secs

     Computing kpt #:    16  of    64
     total cpu time spent up to now is       34.2 secs

     Computing kpt #:    17  of    64
     total cpu time spent up to now is       37.1 secs

     Computing kpt #:    18  of    64
     total cpu time spent up to now is       39.0 secs

     Computing kpt #:    19  of    64
     total cpu time spent up to now is       41.2 secs

     Computing kpt #:    20  of    64
     total cpu time spent up to now is       43.0 secs

     Computing kpt #:    21  of    64
     total cpu time spent up to now is       45.4 secs

     Computing kpt #:    22  of    64
     total cpu time spent up to now is       47.5 secs

     Computing kpt #:    23  of    64
     total cpu time spent up to now is       49.5 secs

     Computing kpt #:    24  of    64
     total cpu time spent up to now is       51.4 secs

     Computing kpt #:    25  of    64
     total cpu time spent up to now is       53.6 secs

     Computing kpt #:    26  of    64
     total cpu time spent up to now is       55.5 secs

     Computing kpt #:    27  of    64
     total cpu time spent up to now is       57.4 secs

     Computing kpt #:    28  of    64
     total cpu time spent up to now is       59.2 secs

     Computing kpt #:    29  of    64
     total cpu time spent up to now is       61.8 secs

     Computing kpt #:    30  of    64
     total cpu time spent up to now is       63.6 secs

     Computing kpt #:    31  of    64
     total cpu time spent up to now is       65.5 secs

     Computing kpt #:    32  of    64
     total cpu time spent up to now is       67.4 secs

     Computing kpt #:    33  of    64
     total cpu time spent up to now is       69.3 secs

     Computing kpt #:    34  of    64
     total cpu time spent up to now is       71.1 secs

     Computing kpt #:    35  of    64
     total cpu time spent up to now is       73.3 secs

     Computing kpt #:    36  of    64
     total cpu time spent up to now is       75.2 secs

     Computing kpt #:    37  of    64
     total cpu time spent up to now is       77.3 secs

     Computing kpt #:    38  of    64
     total cpu time spent up to now is       79.2 secs

     Computing kpt #:    39  of    64
     total cpu time spent up to now is       81.3 secs

     Computing kpt #:    40  of    64
     total cpu time spent up to now is       83.2 secs

     Computing kpt #:    41  of    64
     total cpu time spent up to now is       85.4 secs

     Computing kpt #:    42  of    64
     total cpu time spent up to now is       87.7 secs

     Computing kpt #:    43  of    64
     total cpu time spent up to now is       89.8 secs

     Computing kpt #:    44  of    64
     total cpu time spent up to now is       92.1 secs

     Computing kpt #:    45  of    64
     total cpu time spent up to now is       94.3 secs

     Computing kpt #:    46  of    64
     total cpu time spent up to now is       96.1 secs

     Computing kpt #:    47  of    64
     total cpu time spent up to now is       98.1 secs

     Computing kpt #:    48  of    64
     total cpu time spent up to now is       99.9 secs

     Computing kpt #:    49  of    64
     total cpu time spent up to now is      102.8 secs

     Computing kpt #:    50  of    64
     total cpu time spent up to now is      104.7 secs

     Computing kpt #:    51  of    64
     total cpu time spent up to now is      106.8 secs

     Computing kpt #:    52  of    64
     total cpu time spent up to now is      108.7 secs

     Computing kpt #:    53  of    64
     total cpu time spent up to now is      110.9 secs

     Computing kpt #:    54  of    64
     total cpu time spent up to now is      112.9 secs

     Computing kpt #:    55  of    64
     total cpu time spent up to now is      115.0 secs

     Computing kpt #:    56  of    64
     total cpu time spent up to now is      116.9 secs

     Computing kpt #:    57  of    64
     total cpu time spent up to now is      119.3 secs

     Computing kpt #:    58  of    64
     total cpu time spent up to now is      121.2 secs

     Computing kpt #:    59  of    64
     total cpu time spent up to now is      123.2 secs

     Computing kpt #:    60  of    64
     total cpu time spent up to now is      125.1 secs

     Computing kpt #:    61  of    64
     total cpu time spent up to now is      127.3 secs

     Computing kpt #:    62  of    64
     total cpu time spent up to now is      129.3 secs

     Computing kpt #:    63  of    64
     total cpu time spent up to now is      131.2 secs

     Computing kpt #:    64  of    64
     total cpu time spent up to now is      133.3 secs

     ethr =  6.25E-12,  avg # of iterations = 46.6

     total cpu time spent up to now is      133.3 secs

     End of band structure calculation

          k = 0.0000 0.0000 0.0000 ( 19923 PWs)   bands (ev):

   -80.0716 -47.0851 -47.0071 -47.0071 -14.2928  -5.7563  -4.2331  -4.2331
    -3.3836  -0.1769  -0.1769   0.2857   0.5753   1.4652   1.5107   2.8451
     2.8451   3.0032   3.1466   3.3991   3.4417   3.7567   3.8045   3.8045
     4.3220   4.3563   4.3563   4.9252   5.2419   5.2419   5.2501   5.3773
     6.1257

     occupation numbers 
     1.0000   1.0000   1.0000   1.0000   1.0000   1.0000   1.0000   1.0000
     0.0000   0.0000   0.0000   0.0000   0.0000   0.0000   0.0000   0.0000
     0.0000   0.0000   0.0000   0.0000   0.0000   0.0000   0.0000   0.0000
     0.0000   0.0000   0.0000   0.0000   0.0000   0.0000   0.0000   0.0000
     0.0000

          k = 0.0000 0.0000 0.1750 ( 19971 PWs)   bands (ev):

   -80.0716 -47.0851 -47.0071 -47.0071 -14.2928  -5.7571  -4.2331  -4.2331
    -3.3778  -0.1801  -0.1801   0.2430   0.4869   1.5273   1.7651   2.7693
     2.9302   2.9302   3.0916   3.1530   3.7042   3.7042   3.7168   3.9608
     4.2623   4.2623   4.2880   4.7622   5.2112   5.4764   5.4764   5.5302
     6.0134

     occupation numbers 
     1.0000   1.0000   1.0000   1.0000   1.0000   1.0000   1.0000   1.0000
     0.0000   0.0000   0.0000   0.0000   0.0000   0.0000   0.0000   0.0000
     0.0000   0.0000   0.0000   0.0000   0.0000   0.0000   0.0000   0.0000
     0.0000   0.0000   0.0000   0.0000   0.0000   0.0000   0.0000   0.0000
     0.0000

          k = 0.0000 0.0000-0.3500 ( 19978 PWs)   bands (ev):

   -80.0716 -47.0851 -47.0071 -47.0071 -14.2928  -5.7579  -4.2330  -4.2330
    -3.3720  -0.1833  -0.1833   0.1833   0.4521   1.5450   2.0894   2.6828
     2.9329   3.0537   3.0537   3.1596   3.3512   3.5428   3.5428   4.0551
     4.2387   4.2387   4.9114   5.0995   5.1142   5.1783   5.4987   5.4987
     5.6209

     occupation numbers 
     1.0000   1.0000   1.0000   1.0000   1.0000   1.0000   1.0000   1.0000
     0.0000   0.0000   0.0000   0.0000   0.0000   0.0000   0.0000   0.0000
     0.0000   0.0000   0.0000   0.0000   0.0000   0.0000   0.0000   0.0000
     0.0000   0.0000   0.0000   0.0000   0.0000   0.0000   0.0000   0.0000
     0.0000

          k = 0.0000 0.0000-0.1750 ( 19971 PWs)   bands (ev):

   -80.0716 -47.0851 -47.0071 -47.0071 -14.2928  -5.7571  -4.2331  -4.2331
    -3.3778  -0.1801  -0.1801   0.2430   0.4869   1.5273   1.7651   2.7693
     2.9302   2.9302   3.0916   3.1530   3.7042   3.7042   3.7168   3.9608
     4.2623   4.2623   4.2880   4.7622   5.2112   5.4764   5.4764   5.5302
     6.0134

     occupation numbers 
     1.0000   1.0000   1.0000   1.0000   1.0000   1.0000   1.0000   1.0000
     0.0000   0.0000   0.0000   0.0000   0.0000   0.0000   0.0000   0.0000
     0.0000   0.0000   0.0000   0.0000   0.0000   0.0000   0.0000   0.0000
     0.0000   0.0000   0.0000   0.0000   0.0000   0.0000   0.0000   0.0000
     0.0000

          k = 0.0000 0.2500 0.0000 ( 19968 PWs)   bands (ev):

   -80.0716 -47.0851 -47.0071 -47.0071 -14.2927  -5.7533  -4.2471  -4.2319
    -3.3601  -0.5414  -0.1459   0.6112   0.7197   1.5811   1.7819   2.2891
     2.5056   2.6260   3.1227   3.2084   3.2969   3.8721   4.1510   4.2348
     4.5139   4.5351   4.7664   4.9609   5.1793   5.2808   5.3086   5.5966
     5.6860

     occupation numbers 
     1.0000   1.0000   1.0000   1.0000   1.0000   1.0000   1.0000   1.0000
     0.0000   0.0000   0.0000   0.0000   0.0000   0.0000   0.0000   0.0000
     0.0000   0.0000   0.0000   0.0000   0.0000   0.0000   0.0000   0.0000
     0.0000   0.0000   0.0000   0.0000   0.0000   0.0000   0.0000   0.0000
     0.0000

          k = 0.0000 0.2500 0.1750 ( 19980 PWs)   bands (ev):

   -80.0716 -47.0851 -47.0071 -47.0071 -14.2927  -5.7540  -4.2470  -4.2319
    -3.3546  -0.5436  -0.1489   0.4473   0.7957   1.6657   1.9520   2.1359
     2.5329   2.8126   3.0529   3.1667   3.3496   3.8190   3.9975   4.2801
     4.4605   4.4695   4.7284   4.9104   4.9904   5.2030   5.3484   5.4916
     5.7736

     occupation numbers 
     1.0000   1.0000   1.0000   1.0000   1.0000   1.0000   1.0000   1.0000
     0.0000   0.0000   0.0000   0.0000   0.0000   0.0000   0.0000   0.0000
     0.0000   0.0000   0.0000   0.0000   0.0000   0.0000   0.0000   0.0000
     0.0000   0.0000   0.0000   0.0000   0.0000   0.0000   0.0000   0.0000
     0.0000

          k = 0.0000 0.2500-0.3500 ( 19962 PWs)   bands (ev):

   -80.0716 -47.0851 -47.0071 -47.0071 -14.2927  -5.7548  -4.2469  -4.2318
    -3.3491  -0.5458  -0.1520   0.3464   0.8267   1.8054   1.8239   2.3823
     2.5623   2.7662   3.0847   3.2103   3.4150   3.5081   3.9177   4.2895
     4.3417   4.3814   4.6975   4.8687   5.1418   5.1753   5.5445   5.6909
     5.9130

     occupation numbers 
     1.0000   1.0000   1.0000   1.0000   1.0000   1.0000   1.0000   1.0000
     0.0000   0.0000   0.0000   0.0000   0.0000   0.0000   0.0000   0.0000
     0.0000   0.0000   0.0000   0.0000   0.0000   0.0000   0.0000   0.0000
     0.0000   0.0000   0.0000   0.0000   0.0000   0.0000   0.0000   0.0000
     0.0000

          k = 0.0000 0.2500-0.1750 ( 19980 PWs)   bands (ev):

   -80.0716 -47.0851 -47.0071 -47.0071 -14.2927  -5.7540  -4.2470  -4.2319
    -3.3546  -0.5436  -0.1489   0.4473   0.7957   1.6657   1.9520   2.1359
     2.5329   2.8126   3.0529   3.1667   3.3496   3.8190   3.9975   4.2801
     4.4605   4.4695   4.7284   4.9104   4.9904   5.2030   5.3484   5.4916
     5.7736

     occupation numbers 
     1.0000   1.0000   1.0000   1.0000   1.0000   1.0000   1.0000   1.0000
     0.0000   0.0000   0.0000   0.0000   0.0000   0.0000   0.0000   0.0000
     0.0000   0.0000   0.0000   0.0000   0.0000   0.0000   0.0000   0.0000
     0.0000   0.0000   0.0000   0.0000   0.0000   0.0000   0.0000   0.0000
     0.0000

          k = 0.0000-0.5000 0.0000 ( 20022 PWs)   bands (ev):

   -80.0716 -47.0851 -47.0071 -47.0071 -14.2926  -5.7502  -4.2607  -4.2307
    -3.3358  -0.7608  -0.1125   0.9312   0.9986   1.2411   1.9701   2.0334
     2.2425   2.5455   3.2622   3.2711   3.5072   3.6688   4.1109   4.1931
     4.3650   4.4628   4.7073   4.8585   5.0202   5.2556   5.4916   5.8435
     5.8441

     occupation numbers 
     1.0000   1.0000   1.0000   1.0000   1.0000   1.0000   1.0000   1.0000
     0.0000   0.0000   0.0000   0.0000   0.0000   0.0000   0.0000   0.0000
     0.0000   0.0000   0.0000   0.0000   0.0000   0.0000   0.0000   0.0000
     0.0000   0.0000   0.0000   0.0000   0.0000   0.0000   0.0000   0.0000
     0.0000

          k = 0.0000-0.5000 0.1750 ( 19978 PWs)   bands (ev):

   -80.0716 -47.0851 -47.0071 -47.0071 -14.2926  -5.7510  -4.2605  -4.2307
    -3.3307  -0.7641  -0.1154   0.7341   1.1081   1.2590   1.8718   2.2588
     2.2854   2.7506   3.1331   3.3731   3.5492   3.5622   3.8101   4.2334
     4.3540   4.4464   4.4678   4.9546   4.9753   5.3350   5.5341   5.7542
     5.9723

     occupation numbers 
     1.0000   1.0000   1.0000   1.0000   1.0000   1.0000   1.0000   1.0000
     0.0000   0.0000   0.0000   0.0000   0.0000   0.0000   0.0000   0.0000
     0.0000   0.0000   0.0000   0.0000   0.0000   0.0000   0.0000   0.0000
     0.0000   0.0000   0.0000   0.0000   0.0000   0.0000   0.0000   0.0000
     0.0000

          k = 0.0000-0.5000-0.3500 ( 19976 PWs)   bands (ev):

   -80.0716 -47.0851 -47.0071 -47.0071 -14.2926  -5.7517  -4.2604  -4.2306
    -3.3255  -0.7673  -0.1184   0.6262   1.1446   1.2803   1.7924   2.2763
     2.5915   3.0199   3.0267   3.4225   3.5210   3.5448   3.6541   4.0239
     4.1389   4.2058   4.2830   5.3855   5.4425   5.5920   5.7168   5.7207
     5.7382

     occupation numbers 
     1.0000   1.0000   1.0000   1.0000   1.0000   1.0000   1.0000   1.0000
     0.0000   0.0000   0.0000   0.0000   0.0000   0.0000   0.0000   0.0000
     0.0000   0.0000   0.0000   0.0000   0.0000   0.0000   0.0000   0.0000
     0.0000   0.0000   0.0000   0.0000   0.0000   0.0000   0.0000   0.0000
     0.0000

          k = 0.0000-0.5000-0.1750 ( 19978 PWs)   bands (ev):

   -80.0716 -47.0851 -47.0071 -47.0071 -14.2926  -5.7510  -4.2605  -4.2307
    -3.3307  -0.7641  -0.1154   0.7341   1.1081   1.2590   1.8718   2.2588
     2.2854   2.7506   3.1331   3.3731   3.5492   3.5622   3.8101   4.2334
     4.3540   4.4464   4.4678   4.9546   4.9753   5.3350   5.5341   5.7542
     5.9723

     occupation numbers 
     1.0000   1.0000   1.0000   1.0000   1.0000   1.0000   1.0000   1.0000
     0.0000   0.0000   0.0000   0.0000   0.0000   0.0000   0.0000   0.0000
     0.0000   0.0000   0.0000   0.0000   0.0000   0.0000   0.0000   0.0000
     0.0000   0.0000   0.0000   0.0000   0.0000   0.0000   0.0000   0.0000
     0.0000

          k = 0.0000-0.2500 0.0000 ( 19968 PWs)   bands (ev):

   -80.0716 -47.0851 -47.0071 -47.0071 -14.2927  -5.7533  -4.2471  -4.2319
    -3.3601  -0.5414  -0.1459   0.6112   0.7197   1.5811   1.7819   2.2891
     2.5056   2.6260   3.1227   3.2084   3.2969   3.8721   4.1510   4.2348
     4.5139   4.5351   4.7664   4.9609   5.1793   5.2808   5.3086   5.5966
     5.6860

     occupation numbers 
     1.0000   1.0000   1.0000   1.0000   1.0000   1.0000   1.0000   1.0000
     0.0000   0.0000   0.0000   0.0000   0.0000   0.0000   0.0000   0.0000
     0.0000   0.0000   0.0000   0.0000   0.0000   0.0000   0.0000   0.0000
     0.0000   0.0000   0.0000   0.0000   0.0000   0.0000   0.0000   0.0000
     0.0000

          k = 0.0000-0.2500 0.1750 ( 19980 PWs)   bands (ev):

   -80.0716 -47.0851 -47.0071 -47.0071 -14.2927  -5.7540  -4.2470  -4.2319
    -3.3546  -0.5436  -0.1489   0.4473   0.7957   1.6657   1.9520   2.1359
     2.5329   2.8126   3.0529   3.1667   3.3496   3.8190   3.9975   4.2801
     4.4605   4.4695   4.7284   4.9104   4.9904   5.2030   5.3484   5.4916
     5.7736

     occupation numbers 
     1.0000   1.0000   1.0000   1.0000   1.0000   1.0000   1.0000   1.0000
     0.0000   0.0000   0.0000   0.0000   0.0000   0.0000   0.0000   0.0000
     0.0000   0.0000   0.0000   0.0000   0.0000   0.0000   0.0000   0.0000
     0.0000   0.0000   0.0000   0.0000   0.0000   0.0000   0.0000   0.0000
     0.0000

          k = 0.0000-0.2500-0.3500 ( 19962 PWs)   bands (ev):

   -80.0716 -47.0851 -47.0071 -47.0071 -14.2927  -5.7548  -4.2469  -4.2318
    -3.3491  -0.5458  -0.1520   0.3464   0.8267   1.8054   1.8239   2.3823
     2.5623   2.7662   3.0847   3.2103   3.4150   3.5081   3.9177   4.2895
     4.3417   4.3814   4.6975   4.8687   5.1418   5.1753   5.5445   5.6909
     5.9130

     occupation numbers 
     1.0000   1.0000   1.0000   1.0000   1.0000   1.0000   1.0000   1.0000
     0.0000   0.0000   0.0000   0.0000   0.0000   0.0000   0.0000   0.0000
     0.0000   0.0000   0.0000   0.0000   0.0000   0.0000   0.0000   0.0000
     0.0000   0.0000   0.0000   0.0000   0.0000   0.0000   0.0000   0.0000
     0.0000

          k = 0.0000-0.2500-0.1750 ( 19980 PWs)   bands (ev):

   -80.0716 -47.0851 -47.0071 -47.0071 -14.2927  -5.7540  -4.2470  -4.2319
    -3.3546  -0.5436  -0.1489   0.4473   0.7957   1.6657   1.9520   2.1359
     2.5329   2.8126   3.0529   3.1667   3.3496   3.8190   3.9975   4.2801
     4.4605   4.4695   4.7284   4.9104   4.9904   5.2030   5.3484   5.4916
     5.7736

     occupation numbers 
     1.0000   1.0000   1.0000   1.0000   1.0000   1.0000   1.0000   1.0000
     0.0000   0.0000   0.0000   0.0000   0.0000   0.0000   0.0000   0.0000
     0.0000   0.0000   0.0000   0.0000   0.0000   0.0000   0.0000   0.0000
     0.0000   0.0000   0.0000   0.0000   0.0000   0.0000   0.0000   0.0000
     0.0000

          k = 0.2500 0.0000 0.0000 ( 19968 PWs)   bands (ev):

   -80.0716 -47.0851 -47.0071 -47.0071 -14.2927  -5.7533  -4.2471  -4.2319
    -3.3601  -0.5414  -0.1459   0.6112   0.7197   1.5811   1.7819   2.2891
     2.5056   2.6260   3.1227   3.2084   3.2969   3.8721   4.1510   4.2348
     4.5139   4.5351   4.7664   4.9609   5.1793   5.2808   5.3086   5.5966
     5.6860

     occupation numbers 
     1.0000   1.0000   1.0000   1.0000   1.0000   1.0000   1.0000   1.0000
     0.0000   0.0000   0.0000   0.0000   0.0000   0.0000   0.0000   0.0000
     0.0000   0.0000   0.0000   0.0000   0.0000   0.0000   0.0000   0.0000
     0.0000   0.0000   0.0000   0.0000   0.0000   0.0000   0.0000   0.0000
     0.0000

          k = 0.2500 0.0000 0.1750 ( 19980 PWs)   bands (ev):

   -80.0716 -47.0851 -47.0071 -47.0071 -14.2927  -5.7540  -4.2470  -4.2319
    -3.3546  -0.5436  -0.1489   0.4473   0.7957   1.6657   1.9520   2.1359
     2.5329   2.8126   3.0529   3.1667   3.3496   3.8190   3.9975   4.2801
     4.4605   4.4695   4.7284   4.9104   4.9904   5.2030   5.3484   5.4916
     5.7736

     occupation numbers 
     1.0000   1.0000   1.0000   1.0000   1.0000   1.0000   1.0000   1.0000
     0.0000   0.0000   0.0000   0.0000   0.0000   0.0000   0.0000   0.0000
     0.0000   0.0000   0.0000   0.0000   0.0000   0.0000   0.0000   0.0000
     0.0000   0.0000   0.0000   0.0000   0.0000   0.0000   0.0000   0.0000
     0.0000

          k = 0.2500 0.0000-0.3500 ( 19962 PWs)   bands (ev):

   -80.0716 -47.0851 -47.0071 -47.0071 -14.2927  -5.7548  -4.2469  -4.2318
    -3.3491  -0.5458  -0.1520   0.3464   0.8267   1.8054   1.8239   2.3823
     2.5623   2.7662   3.0847   3.2103   3.4150   3.5081   3.9177   4.2895
     4.3417   4.3814   4.6975   4.8687   5.1418   5.1753   5.5445   5.6909
     5.9130

     occupation numbers 
     1.0000   1.0000   1.0000   1.0000   1.0000   1.0000   1.0000   1.0000
     0.0000   0.0000   0.0000   0.0000   0.0000   0.0000   0.0000   0.0000
     0.0000   0.0000   0.0000   0.0000   0.0000   0.0000   0.0000   0.0000
     0.0000   0.0000   0.0000   0.0000   0.0000   0.0000   0.0000   0.0000
     0.0000

          k = 0.2500 0.0000-0.1750 ( 19980 PWs)   bands (ev):

   -80.0716 -47.0851 -47.0071 -47.0071 -14.2927  -5.7540  -4.2470  -4.2319
    -3.3546  -0.5436  -0.1489   0.4473   0.7957   1.6657   1.9520   2.1359
     2.5329   2.8126   3.0529   3.1667   3.3496   3.8190   3.9975   4.2801
     4.4605   4.4695   4.7284   4.9104   4.9904   5.2030   5.3484   5.4916
     5.7736

     occupation numbers 
     1.0000   1.0000   1.0000   1.0000   1.0000   1.0000   1.0000   1.0000
     0.0000   0.0000   0.0000   0.0000   0.0000   0.0000   0.0000   0.0000
     0.0000   0.0000   0.0000   0.0000   0.0000   0.0000   0.0000   0.0000
     0.0000   0.0000   0.0000   0.0000   0.0000   0.0000   0.0000   0.0000
     0.0000

          k = 0.2500 0.2500 0.0000 ( 19983 PWs)   bands (ev):

   -80.0716 -47.0851 -47.0071 -47.0071 -14.2926  -5.7504  -4.2460  -4.2451
    -3.3378  -0.5236  -0.4331   0.8286   0.9320   1.6937   1.8590   2.1070
     2.3326   2.5023   2.8588   3.0679   3.5643   3.7846   4.1029   4.1861
     4.4947   4.6453   4.8638   5.0366   5.0771   5.4505   5.5516   5.7688
     5.9281

     occupation numbers 
     1.0000   1.0000   1.0000   1.0000   1.0000   1.0000   1.0000   1.0000
     0.0000   0.0000   0.0000   0.0000   0.0000   0.0000   0.0000   0.0000
     0.0000   0.0000   0.0000   0.0000   0.0000   0.0000   0.0000   0.0000
     0.0000   0.0000   0.0000   0.0000   0.0000   0.0000   0.0000   0.0000
     0.0000

          k = 0.2500 0.2500 0.1750 ( 19985 PWs)   bands (ev):

   -80.0716 -47.0851 -47.0071 -47.0071 -14.2926  -5.7511  -4.2459  -4.2450
    -3.3327  -0.5258  -0.4366   0.6163   1.1060   1.7954   1.9250   1.9981
     2.3567   2.3755   3.1658   3.2269   3.3774   3.8010   4.1047   4.1911
     4.2909   4.6010   4.8443   4.8926   5.0632   5.3987   5.5162   5.6145
     5.9826

     occupation numbers 
     1.0000   1.0000   1.0000   1.0000   1.0000   1.0000   1.0000   1.0000
     0.0000   0.0000   0.0000   0.0000   0.0000   0.0000   0.0000   0.0000
     0.0000   0.0000   0.0000   0.0000   0.0000   0.0000   0.0000   0.0000
     0.0000   0.0000   0.0000   0.0000   0.0000   0.0000   0.0000   0.0000
     0.0000

          k = 0.2500 0.2500-0.3500 ( 19980 PWs)   bands (ev):

   -80.0716 -47.0851 -47.0071 -47.0071 -14.2926  -5.7518  -4.2458  -4.2449
    -3.3275  -0.5280  -0.4402   0.5066   1.1945   1.8361   1.8893   2.0673
     2.1571   2.6387   3.1856   3.3968   3.4058   3.7276   3.8721   4.1341
     4.4417   4.5442   4.6207   4.8405   5.1308   5.3451   5.6035   5.6753
     5.8717

     occupation numbers 
     1.0000   1.0000   1.0000   1.0000   1.0000   1.0000   1.0000   1.0000
     0.0000   0.0000   0.0000   0.0000   0.0000   0.0000   0.0000   0.0000
     0.0000   0.0000   0.0000   0.0000   0.0000   0.0000   0.0000   0.0000
     0.0000   0.0000   0.0000   0.0000   0.0000   0.0000   0.0000   0.0000
     0.0000

          k = 0.2500 0.2500-0.1750 ( 19985 PWs)   bands (ev):

   -80.0716 -47.0851 -47.0071 -47.0071 -14.2926  -5.7511  -4.2459  -4.2450
    -3.3327  -0.5258  -0.4366   0.6163   1.1060   1.7954   1.9250   1.9981
     2.3567   2.3755   3.1658   3.2269   3.3774   3.8010   4.1047   4.1911
     4.2909   4.6010   4.8443   4.8926   5.0632   5.3987   5.5162   5.6145
     5.9826

     occupation numbers 
     1.0000   1.0000   1.0000   1.0000   1.0000   1.0000   1.0000   1.0000
     0.0000   0.0000   0.0000   0.0000   0.0000   0.0000   0.0000   0.0000
     0.0000   0.0000   0.0000   0.0000   0.0000   0.0000   0.0000   0.0000
     0.0000   0.0000   0.0000   0.0000   0.0000   0.0000   0.0000   0.0000
     0.0000

          k = 0.2500-0.5000 0.0000 ( 20020 PWs)   bands (ev):

   -80.0716 -47.0851 -47.0071 -47.0071 -14.2926  -5.7474  -4.2588  -4.2440
    -3.3149  -0.6952  -0.4114   1.0791   1.1259   1.3991   1.7123   2.2137
     2.3521   2.6597   2.9705   3.0934   3.1602   3.6050   3.6919   4.2771
     4.5321   4.7811   4.8091   5.1235   5.5561   5.5969   5.7900   5.9090
     6.0209

     occupation numbers 
     1.0000   1.0000   1.0000   1.0000   1.0000   1.0000   1.0000   1.0000
     0.0000   0.0000   0.0000   0.0000   0.0000   0.0000   0.0000   0.0000
     0.0000   0.0000   0.0000   0.0000   0.0000   0.0000   0.0000   0.0000
     0.0000   0.0000   0.0000   0.0000   0.0000   0.0000   0.0000   0.0000
     0.0000

          k = 0.2500-0.5000 0.1750 ( 19978 PWs)   bands (ev):

   -80.0716 -47.0851 -47.0071 -47.0071 -14.2926  -5.7481  -4.2587  -4.2439
    -3.3100  -0.6987  -0.4148   0.8932   1.1778   1.5908   1.5936   2.3078
     2.4592   2.5659   2.8402   3.2513   3.2826   3.7055   3.8228   4.2695
     4.3026   4.6450   4.6527   5.2711   5.3363   5.4472   5.6241   5.6689
     5.9024

     occupation numbers 
     1.0000   1.0000   1.0000   1.0000   1.0000   1.0000   1.0000   1.0000
     0.0000   0.0000   0.0000   0.0000   0.0000   0.0000   0.0000   0.0000
     0.0000   0.0000   0.0000   0.0000   0.0000   0.0000   0.0000   0.0000
     0.0000   0.0000   0.0000   0.0000   0.0000   0.0000   0.0000   0.0000
     0.0000

          k = 0.2500-0.5000-0.3500 ( 19992 PWs)   bands (ev):

   -80.0716 -47.0851 -47.0071 -47.0071 -14.2926  -5.7488  -4.2586  -4.2438
    -3.3051  -0.7022  -0.4182   0.7804   1.2718   1.4451   1.7216   2.3256
     2.4365   2.6834   2.8520   3.3081   3.3808   3.7779   4.0132   4.0552
     4.1904   4.5458   4.7699   4.9860   5.0372   5.3271   5.4892   5.9711
     5.9826

     occupation numbers 
     1.0000   1.0000   1.0000   1.0000   1.0000   1.0000   1.0000   1.0000
     0.0000   0.0000   0.0000   0.0000   0.0000   0.0000   0.0000   0.0000
     0.0000   0.0000   0.0000   0.0000   0.0000   0.0000   0.0000   0.0000
     0.0000   0.0000   0.0000   0.0000   0.0000   0.0000   0.0000   0.0000
     0.0000

          k = 0.2500-0.5000-0.1750 ( 19978 PWs)   bands (ev):

   -80.0716 -47.0851 -47.0071 -47.0071 -14.2926  -5.7481  -4.2587  -4.2439
    -3.3100  -0.6987  -0.4148   0.8932   1.1778   1.5908   1.5936   2.3078
     2.4592   2.5659   2.8402   3.2513   3.2826   3.7055   3.8228   4.2695
     4.3026   4.6450   4.6527   5.2711   5.3363   5.4472   5.6241   5.6689
     5.9024

     occupation numbers 
     1.0000   1.0000   1.0000   1.0000   1.0000   1.0000   1.0000   1.0000
     0.0000   0.0000   0.0000   0.0000   0.0000   0.0000   0.0000   0.0000
     0.0000   0.0000   0.0000   0.0000   0.0000   0.0000   0.0000   0.0000
     0.0000   0.0000   0.0000   0.0000   0.0000   0.0000   0.0000   0.0000
     0.0000

          k = 0.2500-0.2500 0.0000 ( 19983 PWs)   bands (ev):

   -80.0716 -47.0851 -47.0071 -47.0071 -14.2926  -5.7504  -4.2460  -4.2451
    -3.3378  -0.5236  -0.4331   0.8286   0.9320   1.6937   1.8590   2.1070
     2.3326   2.5023   2.8588   3.0679   3.5643   3.7846   4.1029   4.1861
     4.4947   4.6453   4.8638   5.0366   5.0771   5.4505   5.5516   5.7688
     5.9281

     occupation numbers 
     1.0000   1.0000   1.0000   1.0000   1.0000   1.0000   1.0000   1.0000
     0.0000   0.0000   0.0000   0.0000   0.0000   0.0000   0.0000   0.0000
     0.0000   0.0000   0.0000   0.0000   0.0000   0.0000   0.0000   0.0000
     0.0000   0.0000   0.0000   0.0000   0.0000   0.0000   0.0000   0.0000
     0.0000

          k = 0.2500-0.2500 0.1750 ( 19985 PWs)   bands (ev):

   -80.0716 -47.0851 -47.0071 -47.0071 -14.2926  -5.7511  -4.2459  -4.2450
    -3.3327  -0.5258  -0.4366   0.6163   1.1060   1.7954   1.9250   1.9981
     2.3567   2.3755   3.1658   3.2269   3.3774   3.8010   4.1047   4.1911
     4.2909   4.6010   4.8443   4.8926   5.0632   5.3987   5.5162   5.6145
     5.9826

     occupation numbers 
     1.0000   1.0000   1.0000   1.0000   1.0000   1.0000   1.0000   1.0000
     0.0000   0.0000   0.0000   0.0000   0.0000   0.0000   0.0000   0.0000
     0.0000   0.0000   0.0000   0.0000   0.0000   0.0000   0.0000   0.0000
     0.0000   0.0000   0.0000   0.0000   0.0000   0.0000   0.0000   0.0000
     0.0000

          k = 0.2500-0.2500-0.3500 ( 19980 PWs)   bands (ev):

   -80.0716 -47.0851 -47.0071 -47.0071 -14.2926  -5.7518  -4.2458  -4.2449
    -3.3275  -0.5280  -0.4402   0.5066   1.1945   1.8361   1.8893   2.0673
     2.1571   2.6387   3.1856   3.3968   3.4058   3.7276   3.8721   4.1341
     4.4417   4.5442   4.6207   4.8405   5.1308   5.3451   5.6035   5.6753
     5.8717

     occupation numbers 
     1.0000   1.0000   1.0000   1.0000   1.0000   1.0000   1.0000   1.0000
     0.0000   0.0000   0.0000   0.0000   0.0000   0.0000   0.0000   0.0000
     0.0000   0.0000   0.0000   0.0000   0.0000   0.0000   0.0000   0.0000
     0.0000   0.0000   0.0000   0.0000   0.0000   0.0000   0.0000   0.0000
     0.0000

          k = 0.2500-0.2500-0.1750 ( 19985 PWs)   bands (ev):

   -80.0716 -47.0851 -47.0071 -47.0071 -14.2926  -5.7511  -4.2459  -4.2450
    -3.3327  -0.5258  -0.4366   0.6163   1.1060   1.7954   1.9250   1.9981
     2.3567   2.3755   3.1658   3.2269   3.3774   3.8010   4.1047   4.1911
     4.2909   4.6010   4.8443   4.8926   5.0632   5.3987   5.5162   5.6145
     5.9826

     occupation numbers 
     1.0000   1.0000   1.0000   1.0000   1.0000   1.0000   1.0000   1.0000
     0.0000   0.0000   0.0000   0.0000   0.0000   0.0000   0.0000   0.0000
     0.0000   0.0000   0.0000   0.0000   0.0000   0.0000   0.0000   0.0000
     0.0000   0.0000   0.0000   0.0000   0.0000   0.0000   0.0000   0.0000
     0.0000

          k =-0.5000 0.0000 0.0000 ( 20022 PWs)   bands (ev):

   -80.0716 -47.0851 -47.0071 -47.0071 -14.2926  -5.7502  -4.2607  -4.2307
    -3.3358  -0.7608  -0.1125   0.9312   0.9986   1.2411   1.9701   2.0334
     2.2425   2.5455   3.2622   3.2711   3.5072   3.6688   4.1109   4.1931
     4.3650   4.4628   4.7073   4.8585   5.0202   5.2556   5.4916   5.8435
     5.8441

     occupation numbers 
     1.0000   1.0000   1.0000   1.0000   1.0000   1.0000   1.0000   1.0000
     0.0000   0.0000   0.0000   0.0000   0.0000   0.0000   0.0000   0.0000
     0.0000   0.0000   0.0000   0.0000   0.0000   0.0000   0.0000   0.0000
     0.0000   0.0000   0.0000   0.0000   0.0000   0.0000   0.0000   0.0000
     0.0000

          k =-0.5000 0.0000 0.1750 ( 19978 PWs)   bands (ev):

   -80.0716 -47.0851 -47.0071 -47.0071 -14.2926  -5.7510  -4.2605  -4.2307
    -3.3307  -0.7641  -0.1154   0.7341   1.1081   1.2590   1.8718   2.2588
     2.2854   2.7506   3.1331   3.3731   3.5492   3.5622   3.8101   4.2334
     4.3540   4.4464   4.4678   4.9546   4.9753   5.3350   5.5341   5.7542
     5.9723

     occupation numbers 
     1.0000   1.0000   1.0000   1.0000   1.0000   1.0000   1.0000   1.0000
     0.0000   0.0000   0.0000   0.0000   0.0000   0.0000   0.0000   0.0000
     0.0000   0.0000   0.0000   0.0000   0.0000   0.0000   0.0000   0.0000
     0.0000   0.0000   0.0000   0.0000   0.0000   0.0000   0.0000   0.0000
     0.0000

          k =-0.5000 0.0000-0.3500 ( 19976 PWs)   bands (ev):

   -80.0716 -47.0851 -47.0071 -47.0071 -14.2926  -5.7517  -4.2604  -4.2306
    -3.3255  -0.7673  -0.1184   0.6262   1.1446   1.2803   1.7924   2.2763
     2.5915   3.0199   3.0267   3.4225   3.5210   3.5448   3.6541   4.0239
     4.1389   4.2058   4.2830   5.3855   5.4425   5.5920   5.7168   5.7207
     5.7382

     occupation numbers 
     1.0000   1.0000   1.0000   1.0000   1.0000   1.0000   1.0000   1.0000
     0.0000   0.0000   0.0000   0.0000   0.0000   0.0000   0.0000   0.0000
     0.0000   0.0000   0.0000   0.0000   0.0000   0.0000   0.0000   0.0000
     0.0000   0.0000   0.0000   0.0000   0.0000   0.0000   0.0000   0.0000
     0.0000

          k =-0.5000 0.0000-0.1750 ( 19978 PWs)   bands (ev):

   -80.0716 -47.0851 -47.0071 -47.0071 -14.2926  -5.7510  -4.2605  -4.2307
    -3.3307  -0.7641  -0.1154   0.7341   1.1081   1.2590   1.8718   2.2588
     2.2854   2.7506   3.1331   3.3731   3.5492   3.5622   3.8101   4.2334
     4.3540   4.4464   4.4678   4.9546   4.9753   5.3350   5.5341   5.7542
     5.9723

     occupation numbers 
     1.0000   1.0000   1.0000   1.0000   1.0000   1.0000   1.0000   1.0000
     0.0000   0.0000   0.0000   0.0000   0.0000   0.0000   0.0000   0.0000
     0.0000   0.0000   0.0000   0.0000   0.0000   0.0000   0.0000   0.0000
     0.0000   0.0000   0.0000   0.0000   0.0000   0.0000   0.0000   0.0000
     0.0000

          k =-0.5000 0.2500 0.0000 ( 20020 PWs)   bands (ev):

   -80.0716 -47.0851 -47.0071 -47.0071 -14.2926  -5.7474  -4.2588  -4.2440
    -3.3149  -0.6952  -0.4114   1.0791   1.1259   1.3991   1.7123   2.2137
     2.3521   2.6597   2.9705   3.0934   3.1602   3.6050   3.6919   4.2771
     4.5321   4.7811   4.8091   5.1235   5.5561   5.5969   5.7900   5.9090
     6.0209

     occupation numbers 
     1.0000   1.0000   1.0000   1.0000   1.0000   1.0000   1.0000   1.0000
     0.0000   0.0000   0.0000   0.0000   0.0000   0.0000   0.0000   0.0000
     0.0000   0.0000   0.0000   0.0000   0.0000   0.0000   0.0000   0.0000
     0.0000   0.0000   0.0000   0.0000   0.0000   0.0000   0.0000   0.0000
     0.0000

          k =-0.5000 0.2500 0.1750 ( 19978 PWs)   bands (ev):

   -80.0716 -47.0851 -47.0071 -47.0071 -14.2926  -5.7481  -4.2587  -4.2439
    -3.3100  -0.6987  -0.4148   0.8932   1.1778   1.5908   1.5936   2.3078
     2.4592   2.5659   2.8402   3.2513   3.2826   3.7055   3.8228   4.2695
     4.3026   4.6450   4.6527   5.2711   5.3363   5.4472   5.6241   5.6689
     5.9024

     occupation numbers 
     1.0000   1.0000   1.0000   1.0000   1.0000   1.0000   1.0000   1.0000
     0.0000   0.0000   0.0000   0.0000   0.0000   0.0000   0.0000   0.0000
     0.0000   0.0000   0.0000   0.0000   0.0000   0.0000   0.0000   0.0000
     0.0000   0.0000   0.0000   0.0000   0.0000   0.0000   0.0000   0.0000
     0.0000

          k =-0.5000 0.2500-0.3500 ( 19992 PWs)   bands (ev):

   -80.0716 -47.0851 -47.0071 -47.0071 -14.2926  -5.7488  -4.2586  -4.2438
    -3.3051  -0.7022  -0.4182   0.7804   1.2718   1.4451   1.7216   2.3256
     2.4365   2.6834   2.8520   3.3081   3.3808   3.7779   4.0132   4.0552
     4.1904   4.5458   4.7699   4.9860   5.0372   5.3271   5.4892   5.9711
     5.9826

     occupation numbers 
     1.0000   1.0000   1.0000   1.0000   1.0000   1.0000   1.0000   1.0000
     0.0000   0.0000   0.0000   0.0000   0.0000   0.0000   0.0000   0.0000
     0.0000   0.0000   0.0000   0.0000   0.0000   0.0000   0.0000   0.0000
     0.0000   0.0000   0.0000   0.0000   0.0000   0.0000   0.0000   0.0000
     0.0000

          k =-0.5000 0.2500-0.1750 ( 19978 PWs)   bands (ev):

   -80.0716 -47.0851 -47.0071 -47.0071 -14.2926  -5.7481  -4.2587  -4.2439
    -3.3100  -0.6987  -0.4148   0.8932   1.1778   1.5908   1.5936   2.3078
     2.4592   2.5659   2.8402   3.2513   3.2826   3.7055   3.8228   4.2695
     4.3026   4.6450   4.6527   5.2711   5.3363   5.4472   5.6241   5.6689
     5.9024

     occupation numbers 
     1.0000   1.0000   1.0000   1.0000   1.0000   1.0000   1.0000   1.0000
     0.0000   0.0000   0.0000   0.0000   0.0000   0.0000   0.0000   0.0000
     0.0000   0.0000   0.0000   0.0000   0.0000   0.0000   0.0000   0.0000
     0.0000   0.0000   0.0000   0.0000   0.0000   0.0000   0.0000   0.0000
     0.0000

          k =-0.5000-0.5000 0.0000 ( 20028 PWs)   bands (ev):

   -80.0716 -47.0851 -47.0071 -47.0071 -14.2925  -5.7445  -4.2570  -4.2570
    -3.2934  -0.6161  -0.6161   0.8854   1.2762   1.7963   1.7963   2.1229
     2.5161   2.6055   2.6055   2.7201   3.5807   3.5807   3.6576   3.6982
     4.8272   4.8904   4.8904   4.9605   6.0033   6.0033   6.0436   6.1228
     6.3114

     occupation numbers 
     1.0000   1.0000   1.0000   1.0000   1.0000   1.0000   1.0000   1.0000
     0.0000   0.0000   0.0000   0.0000   0.0000   0.0000   0.0000   0.0000
     0.0000   0.0000   0.0000   0.0000   0.0000   0.0000   0.0000   0.0000
     0.0000   0.0000   0.0000   0.0000   0.0000   0.0000   0.0000   0.0000
     0.0000

          k =-0.5000-0.5000 0.1750 ( 19944 PWs)   bands (ev):

   -80.0716 -47.0851 -47.0071 -47.0071 -14.2925  -5.7452  -4.2569  -4.2569
    -3.2888  -0.6201  -0.6201   0.9167   1.1263   1.8254   1.8254   2.1159
     2.4025   2.5903   2.5903   3.3290   3.5779   3.6008   3.6008   3.7018
     4.7875   4.7875   4.7955   4.9248   5.3687   5.8694   6.0250   6.0333
     6.0333

     occupation numbers 
     1.0000   1.0000   1.0000   1.0000   1.0000   1.0000   1.0000   1.0000
     0.0000   0.0000   0.0000   0.0000   0.0000   0.0000   0.0000   0.0000
     0.0000   0.0000   0.0000   0.0000   0.0000   0.0000   0.0000   0.0000
     0.0000   0.0000   0.0000   0.0000   0.0000   0.0000   0.0000   0.0000
     0.0000

          k =-0.5000-0.5000-0.3500 ( 20000 PWs)   bands (ev):

   -80.0716 -47.0851 -47.0071 -47.0071 -14.2925  -5.7459  -4.2568  -4.2568
    -3.2841  -0.6242  -0.6242   0.9531   1.0179   1.8563   1.8563   1.9261
     2.5721   2.5721   2.6965   3.4378   3.6318   3.6318   3.7055   4.1414
     4.2319   4.6588   4.6588   4.9300   4.9667   5.6299   5.9475   6.0723
     6.0723

     occupation numbers 
     1.0000   1.0000   1.0000   1.0000   1.0000   1.0000   1.0000   1.0000
     0.0000   0.0000   0.0000   0.0000   0.0000   0.0000   0.0000   0.0000
     0.0000   0.0000   0.0000   0.0000   0.0000   0.0000   0.0000   0.0000
     0.0000   0.0000   0.0000   0.0000   0.0000   0.0000   0.0000   0.0000
     0.0000

          k =-0.5000-0.5000-0.1750 ( 19944 PWs)   bands (ev):

   -80.0716 -47.0851 -47.0071 -47.0071 -14.2925  -5.7452  -4.2569  -4.2569
    -3.2888  -0.6201  -0.6201   0.9167   1.1263   1.8254   1.8254   2.1159
     2.4025   2.5903   2.5903   3.3290   3.5779   3.6008   3.6008   3.7018
     4.7875   4.7875   4.7955   4.9248   5.3687   5.8694   6.0250   6.0333
     6.0333

     occupation numbers 
     1.0000   1.0000   1.0000   1.0000   1.0000   1.0000   1.0000   1.0000
     0.0000   0.0000   0.0000   0.0000   0.0000   0.0000   0.0000   0.0000
     0.0000   0.0000   0.0000   0.0000   0.0000   0.0000   0.0000   0.0000
     0.0000   0.0000   0.0000   0.0000   0.0000   0.0000   0.0000   0.0000
     0.0000

          k =-0.5000-0.2500 0.0000 ( 20020 PWs)   bands (ev):

   -80.0716 -47.0851 -47.0071 -47.0071 -14.2926  -5.7474  -4.2588  -4.2440
    -3.3149  -0.6952  -0.4114   1.0791   1.1259   1.3991   1.7123   2.2137
     2.3521   2.6597   2.9705   3.0934   3.1602   3.6050   3.6919   4.2771
     4.5321   4.7811   4.8091   5.1235   5.5561   5.5969   5.7900   5.9090
     6.0209

     occupation numbers 
     1.0000   1.0000   1.0000   1.0000   1.0000   1.0000   1.0000   1.0000
     0.0000   0.0000   0.0000   0.0000   0.0000   0.0000   0.0000   0.0000
     0.0000   0.0000   0.0000   0.0000   0.0000   0.0000   0.0000   0.0000
     0.0000   0.0000   0.0000   0.0000   0.0000   0.0000   0.0000   0.0000
     0.0000

          k =-0.5000-0.2500 0.1750 ( 19978 PWs)   bands (ev):

   -80.0716 -47.0851 -47.0071 -47.0071 -14.2926  -5.7481  -4.2587  -4.2439
    -3.3100  -0.6987  -0.4148   0.8932   1.1778   1.5908   1.5936   2.3078
     2.4592   2.5659   2.8402   3.2513   3.2826   3.7055   3.8228   4.2695
     4.3026   4.6450   4.6527   5.2711   5.3363   5.4472   5.6241   5.6689
     5.9024

     occupation numbers 
     1.0000   1.0000   1.0000   1.0000   1.0000   1.0000   1.0000   1.0000
     0.0000   0.0000   0.0000   0.0000   0.0000   0.0000   0.0000   0.0000
     0.0000   0.0000   0.0000   0.0000   0.0000   0.0000   0.0000   0.0000
     0.0000   0.0000   0.0000   0.0000   0.0000   0.0000   0.0000   0.0000
     0.0000

          k =-0.5000-0.2500-0.3500 ( 19992 PWs)   bands (ev):

   -80.0716 -47.0851 -47.0071 -47.0071 -14.2926  -5.7488  -4.2586  -4.2438
    -3.3051  -0.7022  -0.4182   0.7804   1.2718   1.4451   1.7216   2.3256
     2.4365   2.6834   2.8520   3.3081   3.3808   3.7779   4.0132   4.0552
     4.1904   4.5458   4.7699   4.9860   5.0372   5.3271   5.4892   5.9711
     5.9826

     occupation numbers 
     1.0000   1.0000   1.0000   1.0000   1.0000   1.0000   1.0000   1.0000
     0.0000   0.0000   0.0000   0.0000   0.0000   0.0000   0.0000   0.0000
     0.0000   0.0000   0.0000   0.0000   0.0000   0.0000   0.0000   0.0000
     0.0000   0.0000   0.0000   0.0000   0.0000   0.0000   0.0000   0.0000
     0.0000

          k =-0.5000-0.2500-0.1750 ( 19978 PWs)   bands (ev):

   -80.0716 -47.0851 -47.0071 -47.0071 -14.2926  -5.7481  -4.2587  -4.2439
    -3.3100  -0.6987  -0.4148   0.8932   1.1778   1.5908   1.5936   2.3078
     2.4592   2.5659   2.8402   3.2513   3.2826   3.7055   3.8228   4.2695
     4.3026   4.6450   4.6527   5.2711   5.3363   5.4472   5.6241   5.6689
     5.9024

     occupation numbers 
     1.0000   1.0000   1.0000   1.0000   1.0000   1.0000   1.0000   1.0000
     0.0000   0.0000   0.0000   0.0000   0.0000   0.0000   0.0000   0.0000
     0.0000   0.0000   0.0000   0.0000   0.0000   0.0000   0.0000   0.0000
     0.0000   0.0000   0.0000   0.0000   0.0000   0.0000   0.0000   0.0000
     0.0000

          k =-0.2500 0.0000 0.0000 ( 19968 PWs)   bands (ev):

   -80.0716 -47.0851 -47.0071 -47.0071 -14.2927  -5.7533  -4.2471  -4.2319
    -3.3601  -0.5414  -0.1459   0.6112   0.7197   1.5811   1.7819   2.2891
     2.5056   2.6260   3.1227   3.2084   3.2969   3.8721   4.1510   4.2348
     4.5139   4.5351   4.7664   4.9609   5.1793   5.2808   5.3086   5.5966
     5.6860

     occupation numbers 
     1.0000   1.0000   1.0000   1.0000   1.0000   1.0000   1.0000   1.0000
     0.0000   0.0000   0.0000   0.0000   0.0000   0.0000   0.0000   0.0000
     0.0000   0.0000   0.0000   0.0000   0.0000   0.0000   0.0000   0.0000
     0.0000   0.0000   0.0000   0.0000   0.0000   0.0000   0.0000   0.0000
     0.0000

          k =-0.2500 0.0000 0.1750 ( 19980 PWs)   bands (ev):

   -80.0716 -47.0851 -47.0071 -47.0071 -14.2927  -5.7540  -4.2470  -4.2319
    -3.3546  -0.5436  -0.1489   0.4473   0.7957   1.6657   1.9520   2.1359
     2.5329   2.8126   3.0529   3.1667   3.3496   3.8190   3.9975   4.2801
     4.4605   4.4695   4.7284   4.9104   4.9904   5.2030   5.3484   5.4916
     5.7736

     occupation numbers 
     1.0000   1.0000   1.0000   1.0000   1.0000   1.0000   1.0000   1.0000
     0.0000   0.0000   0.0000   0.0000   0.0000   0.0000   0.0000   0.0000
     0.0000   0.0000   0.0000   0.0000   0.0000   0.0000   0.0000   0.0000
     0.0000   0.0000   0.0000   0.0000   0.0000   0.0000   0.0000   0.0000
     0.0000

          k =-0.2500 0.0000-0.3500 ( 19962 PWs)   bands (ev):

   -80.0716 -47.0851 -47.0071 -47.0071 -14.2927  -5.7548  -4.2469  -4.2318
    -3.3491  -0.5458  -0.1520   0.3464   0.8267   1.8054   1.8239   2.3823
     2.5623   2.7662   3.0847   3.2103   3.4150   3.5081   3.9177   4.2895
     4.3417   4.3814   4.6975   4.8687   5.1418   5.1753   5.5445   5.6909
     5.9130

     occupation numbers 
     1.0000   1.0000   1.0000   1.0000   1.0000   1.0000   1.0000   1.0000
     0.0000   0.0000   0.0000   0.0000   0.0000   0.0000   0.0000   0.0000
     0.0000   0.0000   0.0000   0.0000   0.0000   0.0000   0.0000   0.0000
     0.0000   0.0000   0.0000   0.0000   0.0000   0.0000   0.0000   0.0000
     0.0000

          k =-0.2500 0.0000-0.1750 ( 19980 PWs)   bands (ev):

   -80.0716 -47.0851 -47.0071 -47.0071 -14.2927  -5.7540  -4.2470  -4.2319
    -3.3546  -0.5436  -0.1489   0.4473   0.7957   1.6657   1.9520   2.1359
     2.5329   2.8126   3.0529   3.1667   3.3496   3.8190   3.9975   4.2801
     4.4605   4.4695   4.7284   4.9104   4.9904   5.2030   5.3484   5.4916
     5.7736

     occupation numbers 
     1.0000   1.0000   1.0000   1.0000   1.0000   1.0000   1.0000   1.0000
     0.0000   0.0000   0.0000   0.0000   0.0000   0.0000   0.0000   0.0000
     0.0000   0.0000   0.0000   0.0000   0.0000   0.0000   0.0000   0.0000
     0.0000   0.0000   0.0000   0.0000   0.0000   0.0000   0.0000   0.0000
     0.0000

          k =-0.2500 0.2500 0.0000 ( 19983 PWs)   bands (ev):

   -80.0716 -47.0851 -47.0071 -47.0071 -14.2926  -5.7504  -4.2460  -4.2451
    -3.3378  -0.5236  -0.4331   0.8286   0.9320   1.6937   1.8590   2.1070
     2.3326   2.5023   2.8588   3.0679   3.5643   3.7846   4.1029   4.1861
     4.4947   4.6453   4.8638   5.0366   5.0771   5.4505   5.5516   5.7688
     5.9281

     occupation numbers 
     1.0000   1.0000   1.0000   1.0000   1.0000   1.0000   1.0000   1.0000
     0.0000   0.0000   0.0000   0.0000   0.0000   0.0000   0.0000   0.0000
     0.0000   0.0000   0.0000   0.0000   0.0000   0.0000   0.0000   0.0000
     0.0000   0.0000   0.0000   0.0000   0.0000   0.0000   0.0000   0.0000
     0.0000

          k =-0.2500 0.2500 0.1750 ( 19985 PWs)   bands (ev):

   -80.0716 -47.0851 -47.0071 -47.0071 -14.2926  -5.7511  -4.2459  -4.2450
    -3.3327  -0.5258  -0.4366   0.6163   1.1060   1.7954   1.9250   1.9981
     2.3567   2.3755   3.1658   3.2269   3.3774   3.8010   4.1047   4.1911
     4.2909   4.6010   4.8443   4.8926   5.0632   5.3987   5.5162   5.6145
     5.9826

     occupation numbers 
     1.0000   1.0000   1.0000   1.0000   1.0000   1.0000   1.0000   1.0000
     0.0000   0.0000   0.0000   0.0000   0.0000   0.0000   0.0000   0.0000
     0.0000   0.0000   0.0000   0.0000   0.0000   0.0000   0.0000   0.0000
     0.0000   0.0000   0.0000   0.0000   0.0000   0.0000   0.0000   0.0000
     0.0000

          k =-0.2500 0.2500-0.3500 ( 19980 PWs)   bands (ev):

   -80.0716 -47.0851 -47.0071 -47.0071 -14.2926  -5.7518  -4.2458  -4.2449
    -3.3275  -0.5280  -0.4402   0.5066   1.1945   1.8361   1.8893   2.0673
     2.1571   2.6387   3.1856   3.3968   3.4058   3.7276   3.8721   4.1341
     4.4417   4.5442   4.6207   4.8405   5.1308   5.3451   5.6035   5.6753
     5.8717

     occupation numbers 
     1.0000   1.0000   1.0000   1.0000   1.0000   1.0000   1.0000   1.0000
     0.0000   0.0000   0.0000   0.0000   0.0000   0.0000   0.0000   0.0000
     0.0000   0.0000   0.0000   0.0000   0.0000   0.0000   0.0000   0.0000
     0.0000   0.0000   0.0000   0.0000   0.0000   0.0000   0.0000   0.0000
     0.0000

          k =-0.2500 0.2500-0.1750 ( 19985 PWs)   bands (ev):

   -80.0716 -47.0851 -47.0071 -47.0071 -14.2926  -5.7511  -4.2459  -4.2450
    -3.3327  -0.5258  -0.4366   0.6163   1.1060   1.7954   1.9250   1.9981
     2.3567   2.3755   3.1658   3.2269   3.3774   3.8010   4.1047   4.1911
     4.2909   4.6010   4.8443   4.8926   5.0632   5.3987   5.5162   5.6145
     5.9826

     occupation numbers 
     1.0000   1.0000   1.0000   1.0000   1.0000   1.0000   1.0000   1.0000
     0.0000   0.0000   0.0000   0.0000   0.0000   0.0000   0.0000   0.0000
     0.0000   0.0000   0.0000   0.0000   0.0000   0.0000   0.0000   0.0000
     0.0000   0.0000   0.0000   0.0000   0.0000   0.0000   0.0000   0.0000
     0.0000

          k =-0.2500-0.5000 0.0000 ( 20020 PWs)   bands (ev):

   -80.0716 -47.0851 -47.0071 -47.0071 -14.2926  -5.7474  -4.2588  -4.2440
    -3.3149  -0.6952  -0.4114   1.0791   1.1259   1.3991   1.7123   2.2137
     2.3521   2.6597   2.9705   3.0934   3.1602   3.6050   3.6919   4.2771
     4.5321   4.7811   4.8091   5.1235   5.5561   5.5969   5.7900   5.9090
     6.0209

     occupation numbers 
     1.0000   1.0000   1.0000   1.0000   1.0000   1.0000   1.0000   1.0000
     0.0000   0.0000   0.0000   0.0000   0.0000   0.0000   0.0000   0.0000
     0.0000   0.0000   0.0000   0.0000   0.0000   0.0000   0.0000   0.0000
     0.0000   0.0000   0.0000   0.0000   0.0000   0.0000   0.0000   0.0000
     0.0000

          k =-0.2500-0.5000 0.1750 ( 19978 PWs)   bands (ev):

   -80.0716 -47.0851 -47.0071 -47.0071 -14.2926  -5.7481  -4.2587  -4.2439
    -3.3100  -0.6987  -0.4148   0.8932   1.1778   1.5908   1.5936   2.3078
     2.4592   2.5659   2.8402   3.2513   3.2826   3.7055   3.8228   4.2695
     4.3026   4.6450   4.6527   5.2711   5.3363   5.4472   5.6241   5.6689
     5.9024

     occupation numbers 
     1.0000   1.0000   1.0000   1.0000   1.0000   1.0000   1.0000   1.0000
     0.0000   0.0000   0.0000   0.0000   0.0000   0.0000   0.0000   0.0000
     0.0000   0.0000   0.0000   0.0000   0.0000   0.0000   0.0000   0.0000
     0.0000   0.0000   0.0000   0.0000   0.0000   0.0000   0.0000   0.0000
     0.0000

          k =-0.2500-0.5000-0.3500 ( 19992 PWs)   bands (ev):

   -80.0716 -47.0851 -47.0071 -47.0071 -14.2926  -5.7488  -4.2586  -4.2438
    -3.3051  -0.7022  -0.4182   0.7804   1.2718   1.4451   1.7216   2.3256
     2.4365   2.6834   2.8520   3.3081   3.3808   3.7779   4.0132   4.0552
     4.1904   4.5458   4.7699   4.9860   5.0372   5.3271   5.4892   5.9711
     5.9826

     occupation numbers 
     1.0000   1.0000   1.0000   1.0000   1.0000   1.0000   1.0000   1.0000
     0.0000   0.0000   0.0000   0.0000   0.0000   0.0000   0.0000   0.0000
     0.0000   0.0000   0.0000   0.0000   0.0000   0.0000   0.0000   0.0000
     0.0000   0.0000   0.0000   0.0000   0.0000   0.0000   0.0000   0.0000
     0.0000

          k =-0.2500-0.5000-0.1750 ( 19978 PWs)   bands (ev):

   -80.0716 -47.0851 -47.0071 -47.0071 -14.2926  -5.7481  -4.2587  -4.2439
    -3.3100  -0.6987  -0.4148   0.8932   1.1778   1.5908   1.5936   2.3078
     2.4592   2.5659   2.8402   3.2513   3.2826   3.7055   3.8228   4.2695
     4.3026   4.6450   4.6527   5.2711   5.3363   5.4472   5.6241   5.6689
     5.9024

     occupation numbers 
     1.0000   1.0000   1.0000   1.0000   1.0000   1.0000   1.0000   1.0000
     0.0000   0.0000   0.0000   0.0000   0.0000   0.0000   0.0000   0.0000
     0.0000   0.0000   0.0000   0.0000   0.0000   0.0000   0.0000   0.0000
     0.0000   0.0000   0.0000   0.0000   0.0000   0.0000   0.0000   0.0000
     0.0000

          k =-0.2500-0.2500 0.0000 ( 19983 PWs)   bands (ev):

   -80.0716 -47.0851 -47.0071 -47.0071 -14.2926  -5.7504  -4.2460  -4.2451
    -3.3378  -0.5236  -0.4331   0.8286   0.9320   1.6937   1.8590   2.1070
     2.3326   2.5023   2.8588   3.0679   3.5643   3.7846   4.1029   4.1861
     4.4947   4.6453   4.8638   5.0366   5.0771   5.4505   5.5516   5.7688
     5.9281

     occupation numbers 
     1.0000   1.0000   1.0000   1.0000   1.0000   1.0000   1.0000   1.0000
     0.0000   0.0000   0.0000   0.0000   0.0000   0.0000   0.0000   0.0000
     0.0000   0.0000   0.0000   0.0000   0.0000   0.0000   0.0000   0.0000
     0.0000   0.0000   0.0000   0.0000   0.0000   0.0000   0.0000   0.0000
     0.0000

          k =-0.2500-0.2500 0.1750 ( 19985 PWs)   bands (ev):

   -80.0716 -47.0851 -47.0071 -47.0071 -14.2926  -5.7511  -4.2459  -4.2450
    -3.3327  -0.5258  -0.4366   0.6163   1.1060   1.7954   1.9250   1.9981
     2.3567   2.3755   3.1658   3.2269   3.3774   3.8010   4.1047   4.1911
     4.2909   4.6010   4.8443   4.8926   5.0632   5.3987   5.5162   5.6145
     5.9826

     occupation numbers 
     1.0000   1.0000   1.0000   1.0000   1.0000   1.0000   1.0000   1.0000
     0.0000   0.0000   0.0000   0.0000   0.0000   0.0000   0.0000   0.0000
     0.0000   0.0000   0.0000   0.0000   0.0000   0.0000   0.0000   0.0000
     0.0000   0.0000   0.0000   0.0000   0.0000   0.0000   0.0000   0.0000
     0.0000

          k =-0.2500-0.2500-0.3500 ( 19980 PWs)   bands (ev):

   -80.0716 -47.0851 -47.0071 -47.0071 -14.2926  -5.7518  -4.2458  -4.2449
    -3.3275  -0.5280  -0.4402   0.5066   1.1945   1.8361   1.8893   2.0673
     2.1571   2.6387   3.1856   3.3968   3.4058   3.7276   3.8721   4.1341
     4.4417   4.5442   4.6207   4.8405   5.1308   5.3451   5.6035   5.6753
     5.8717

     occupation numbers 
     1.0000   1.0000   1.0000   1.0000   1.0000   1.0000   1.0000   1.0000
     0.0000   0.0000   0.0000   0.0000   0.0000   0.0000   0.0000   0.0000
     0.0000   0.0000   0.0000   0.0000   0.0000   0.0000   0.0000   0.0000
     0.0000   0.0000   0.0000   0.0000   0.0000   0.0000   0.0000   0.0000
     0.0000

          k =-0.2500-0.2500-0.1750 ( 19985 PWs)   bands (ev):

   -80.0716 -47.0851 -47.0071 -47.0071 -14.2926  -5.7511  -4.2459  -4.2450
    -3.3327  -0.5258  -0.4366   0.6163   1.1060   1.7954   1.9250   1.9981
     2.3567   2.3755   3.1658   3.2269   3.3774   3.8010   4.1047   4.1911
     4.2909   4.6010   4.8443   4.8926   5.0632   5.3987   5.5162   5.6145
     5.9826

     occupation numbers 
     1.0000   1.0000   1.0000   1.0000   1.0000   1.0000   1.0000   1.0000
     0.0000   0.0000   0.0000   0.0000   0.0000   0.0000   0.0000   0.0000
     0.0000   0.0000   0.0000   0.0000   0.0000   0.0000   0.0000   0.0000
     0.0000   0.0000   0.0000   0.0000   0.0000   0.0000   0.0000   0.0000
     0.0000

     the Fermi energy is    -3.7868 ev

     Writing output data file /wrk/kfg/julia_data/MgS/dimer.in_vnscf_coords_3/qe.nscf.save/
 
     init_run     :      0.81s CPU      0.91s WALL (       1 calls)
     electrons    :    124.79s CPU    132.24s WALL (       1 calls)

     Called by init_run:
     wfcinit      :      0.00s CPU      0.00s WALL (       1 calls)
     wfcinit:atom :      0.05s CPU      0.05s WALL (      64 calls)
     wfcinit:wfcr :      3.51s CPU      3.79s WALL (      64 calls)
     potinit      :      0.06s CPU      0.08s WALL (       1 calls)
     hinit0       :      0.48s CPU      0.51s WALL (       1 calls)

     Called by electrons:
     c_bands      :    124.79s CPU    132.24s WALL (       1 calls)
     v_of_rho     :      0.06s CPU      0.06s WALL (       1 calls)
     v_h          :      0.00s CPU      0.00s WALL (       1 calls)
     v_xc         :      0.05s CPU      0.06s WALL (       1 calls)
     newd         :      0.20s CPU      0.24s WALL (       1 calls)

     Called by c_bands:
     init_us_2    :      0.10s CPU      0.11s WALL (      64 calls)
     cegterg      :    120.32s CPU    127.46s WALL (     172 calls)

     Called by sum_band:

     Called by *egterg:
     h_psi        :     69.97s CPU     76.54s WALL (    3216 calls)
     s_psi        :      2.73s CPU      2.78s WALL (    3216 calls)
     g_psi        :      1.25s CPU      1.26s WALL (    2980 calls)
     cdiaghg      :     16.28s CPU     16.55s WALL (    3044 calls)
     cegterg:over :     12.94s CPU     13.05s WALL (    2980 calls)
     cegterg:upda :     10.54s CPU     10.71s WALL (    2980 calls)
     cegterg:last :      7.47s CPU      7.51s WALL (     544 calls)
     cdiaghg:chol :      0.85s CPU      0.86s WALL (    3044 calls)
     cdiaghg:inve :      0.20s CPU      0.21s WALL (    3044 calls)
     cdiaghg:para :      1.99s CPU      2.13s WALL (    6088 calls)

     Called by h_psi:
     h_psi:calbec :      3.25s CPU      3.35s WALL (    3216 calls)
     vloc_psi     :     63.62s CPU     69.92s WALL (    3216 calls)
     add_vuspsi   :      2.70s CPU      2.73s WALL (    3216 calls)

     General routines
     calbec       :      3.23s CPU      3.34s WALL (    3216 calls)
     fft          :      0.03s CPU      0.03s WALL (      13 calls)
     ffts         :      0.00s CPU      0.00s WALL (       1 calls)
     fftw         :     57.46s CPU     63.28s WALL (  100044 calls)
     interpolate  :      0.00s CPU      0.00s WALL (       1 calls)
 
     Parallel routines
     fft_scatt_xy :      6.17s CPU      6.87s WALL (  100058 calls)
     fft_scatt_yz :     20.65s CPU     22.82s WALL (  100058 calls)
 
     PWSCF        :   2m 6.14s CPU   2m15.20s WALL

 
   This run was terminated on:  21:27:49  16Apr2020            

=------------------------------------------------------------------------------=
   JOB DONE.
=------------------------------------------------------------------------------=
