ANIMSTEPS  5
CRYSTAL
PRIMVEC 1
2.600001036227576   2.600001036227576   0.0
2.600001036227576   0.0   2.600001036227576
0.0   2.600001036227576   2.600001036227576
PRIMCOORD 1
2        1
13   0.0   0.0   0.0   -5.334144359369206e-13   -5.334032963227751e-13   -5.33400282456642e-13
15   1.300000518113788   1.300000518113788   1.300000518113788   0.0   0.0   0.0
PRIMVEC 2
2.8031828220374364   2.8031828220374364   0.0
2.8031828220374364   0.0   2.8031828220374364
0.0   2.8031828220374364   2.8031828220374364
PRIMCOORD 2
2        1
13   0.0   0.0   0.0   -3.767150541999646e-9   -3.767150543298109e-9   -3.767150555013239e-9
15   1.4015914110187182   1.4015914110187182   1.4015914110187182   3.767150541999646e-9   3.767150543298109e-9   3.767150555013239e-9
PRIMVEC 3
2.794048239861553   2.794048239861553   -7.90167754928414e-8
2.794048239861553   -7.90167754928414e-8   2.794048239861553
-7.90167754928414e-8   2.794048239861553   2.794048239861553
PRIMCOORD 3
2        1
13   -2.3563066598179692e-8   -2.3563066598179692e-8   -2.356306659817969e-8   4.979768390528902e-9   4.979770065494022e-9   4.9797691275632724e-9
15   1.3970241237396495   1.3970241237396495   1.3970241237396495   -4.979768390528902e-9   -4.979770065494022e-9   -4.9797691275632724e-9
PRIMVEC 4
2.785914478551776   2.785914478551776   -1.8276783074355586e-7
2.785914478551776   -1.8276783074355586e-7   2.785914478551776
-1.8276783074355586e-7   2.785914478551776   2.785914478551776
PRIMCOORD 4
2        1
13   2.2939480999747275e-8   2.293948099974727e-8   2.293948099974727e-8   -2.407551598513447e-8   -2.4075515950985652e-8   -2.407551585337412e-8
15   1.3929571706444497   1.3929571706444497   1.3929571706444497   2.407551598513447e-8   2.4075515950985652e-8   2.407551585337412e-8
PRIMVEC 5
2.781655318448771   2.781655318448771   -2.6074575543112834e-7
2.781655318448771   -2.6074575543112834e-7   2.781655318448771
-2.6074575543112834e-7   2.781655318448771   2.781655318448771
PRIMCOORD 5
2        1
13   -3.1079960859103313e-7   -3.107996085910331e-7   -3.107996085910331e-7   1.495612757397485e-7   1.4956127572941265e-7   1.4956127581821854e-7
15   1.3908279048375556   1.3908279048375556   1.3908279048375554   -1.495612757397485e-7   -1.4956127572941265e-7   -1.4956127581821854e-7
