ANIMSTEPS  5
CRYSTAL
PRIMVEC 1
2.600001036227576   2.600001036227576   0.0
2.600001036227576   0.0   2.600001036227576
0.0   2.600001036227576   2.600001036227576
PRIMCOORD 1
2        1
13   0.0   0.0   0.0   -5.334144359369206e-13   -5.334032963227751e-13   -5.33400282456642e-13
15   1.300000518113788   1.300000518113788   1.300000518113788   0.0   0.0   0.0
PRIMVEC 2
2.8031826012428844   2.8031826012428844   0.0
2.8031826012428844   0.0   2.8031826012428844
0.0   2.8031826012428844   2.8031826012428844
PRIMCOORD 2
2        1
13   0.0   0.0   0.0   -3.76716239118668e-9   -3.7671623942657685e-9   -3.767162409009261e-9
15   1.4015913006214422   1.4015913006214422   1.4015913006214422   3.76716239118668e-9   3.7671623942657685e-9   3.767162409009261e-9
PRIMVEC 3
2.781515868073018   2.781515868073018   -1.874257778083393e-7
2.781515868073018   -1.874257778083393e-7   2.781515868073018
-1.874257778083393e-7   2.781515868073018   2.781515868073018
PRIMCOORD 3
2        1
13   -5.564031639327337e-8   -5.564031639327337e-8   -5.564031639327336e-8   1.6778644418808532e-8   1.6778645012207343e-8   1.6778643335203296e-8
15   1.390757942820381   1.390757942820381   1.3907579428203807   -1.6778644418808532e-8   -1.6778645012207343e-8   -1.6778643335203296e-8
PRIMVEC 4
2.781511573147559   2.781511573147559   -9.700250847295302e-7
2.781511573147559   -9.700250847295302e-7   2.781511573147559
-9.700250847295302e-7   2.781511573147559   2.781511573147559
PRIMCOORD 4
2        1
13   1.3650105939066864e-6   1.3650105939066864e-6   1.3650105939066864e-6   -7.718038121530216e-7   -7.718038118311893e-7   -7.71803812150928e-7
15   1.3907541790569142   1.3907541790569142   1.3907541790569142   7.718038121530216e-7   7.718038118311893e-7   7.71803812150928e-7
PRIMVEC 5
2.7815205228859226   2.7815205228859226   -8.799648864897094e-7
2.7815205228859226   -8.799648864897094e-7   2.7815205228859226
-8.799648864897094e-7   2.7815205228859226   2.7815205228859226
PRIMCOORD 5
2        1
13   5.591368678176147e-7   5.591368678176148e-7   5.591368678176148e-7   -3.390414169542359e-7   -3.3904141476105237e-7   -3.3904141343371887e-7
15   1.3907594823148717   1.3907594823148717   1.3907594823148717   3.390414169542359e-7   3.3904141476105237e-7   3.3904141343371887e-7
