ANIMSTEPS  5
CRYSTAL
PRIMVEC 1
2.600001036227576   2.600001036227576   0.0
2.600001036227576   0.0   2.600001036227576
0.0   2.600001036227576   2.600001036227576
PRIMCOORD 1
2        1
13   0.0   0.0   0.0   -5.334154464164016e-13   -5.334028564005476e-13   -5.33399829823981e-13
15   1.300000518113788   1.300000518113788   1.300000518113788   0.0   0.0   0.0
PRIMVEC 2
2.8031826012428733   2.8031826012428733   0.0
2.8031826012428733   0.0   2.8031826012428733
0.0   2.8031826012428733   2.8031826012428733
PRIMCOORD 2
2        1
13   0.0   0.0   0.0   -3.767162393539466e-9   -3.767162411953729e-9   -3.7671624035105475e-9
15   1.4015913006214367   1.4015913006214367   1.4015913006214367   3.767162393539466e-9   3.767162411953729e-9   3.7671624035105475e-9
PRIMVEC 3
2.781515868072894   2.781515868072894   -1.8742577780201567e-7
2.781515868072894   -1.8742577780201567e-7   2.781515868072894
-1.8742577780201567e-7   2.781515868072894   2.781515868072894
PRIMCOORD 3
2        1
13   -5.564031654158124e-8   -5.564031654158124e-8   -5.564031654158124e-8   1.6778644119277916e-8   1.677864412242984e-8   1.6778645172492483e-8
15   1.3907579428203194   1.3907579428203194   1.3907579428203194   -1.6778644119277916e-8   -1.677864412242984e-8   -1.6778645172492483e-8
PRIMVEC 4
2.7815115731474327   2.7815115731474327   -9.700250736912255e-7
2.7815115731474327   -9.700250736912255e-7   2.7815115731474327
-9.700250736912255e-7   2.7815115731474327   2.7815115731474327
PRIMCOORD 4
2        1
13   1.3650105431746447e-6   1.3650105431746447e-6   1.3650105431746447e-6   -7.718037858685804e-7   -7.718037858734508e-7   -7.718037860376378e-7
15   1.390754179056905   1.390754179056905   1.390754179056905   7.718037858685804e-7   7.718037858734508e-7   7.718037860376378e-7
PRIMVEC 5
2.7815205228858   2.7815205228858   -8.799648776262308e-7
2.7815205228858   -8.799648776262308e-7   2.7815205228858
-8.799648776262308e-7   2.7815205228858   2.7815205228858
PRIMCOORD 5
2        1
13   5.591368448357731e-7   5.591368448357731e-7   5.59136844835773e-7   -3.390414023659323e-7   -3.3904140236809643e-7   -3.3904140239887295e-7
15   1.3907594823148357   1.3907594823148357   1.3907594823148357   3.390414023659323e-7   3.3904140236809643e-7   3.3904140239887295e-7
