ANIMSTEPS  5
CRYSTAL
PRIMVEC 1
2.600001036227576   2.600001036227576   0.0
2.600001036227576   0.0   2.600001036227576
0.0   2.600001036227576   2.600001036227576
PRIMCOORD 1
2        1
13   0.0   0.0   0.0   -5.334154464164016e-13   -5.334028564005476e-13   -5.33399829823981e-13
15   1.300000518113788   1.300000518113788   1.300000518113788   0.0   0.0   0.0
PRIMVEC 2
2.803182822037423   2.803182822037423   0.0
2.803182822037423   0.0   2.803182822037423
0.0   2.803182822037423   2.803182822037423
PRIMCOORD 2
2        1
13   0.0   0.0   0.0   -3.767150544870893e-9   -3.767150557654017e-9   -3.767150523731472e-9
15   1.4015914110187115   1.4015914110187115   1.4015914110187115   3.767150544870893e-9   3.767150557654017e-9   3.767150523731472e-9
PRIMVEC 3
2.794048239861545   2.794048239861545   -7.901677551876685e-8
2.794048239861545   -7.901677551876685e-8   2.794048239861545
-7.901677551876685e-8   2.794048239861545   2.794048239861545
PRIMCOORD 3
2        1
13   -2.3563066652055014e-8   -2.356306665205501e-8   -2.356306665205501e-8   4.979769507581389e-9   4.979769495633327e-9   4.979769548170861e-9
15   1.3970241237396455   1.3970241237396455   1.3970241237396455   -4.979769507581389e-9   -4.979769495633327e-9   -4.979769548170861e-9
PRIMVEC 4
2.785914478551773   2.785914478551773   -1.827678291218143e-7
2.785914478551773   -1.827678291218143e-7   2.785914478551773
-1.827678291218143e-7   2.785914478551773   2.785914478551773
PRIMCOORD 4
2        1
13   2.293948349717596e-8   2.293948349717596e-8   2.293948349717596e-8   -2.4075516230524028e-8   -2.4075516227747692e-8   -2.4075516164463356e-8
15   1.3929571706444457   1.3929571706444457   1.3929571706444457   2.4075516230524028e-8   2.4075516227747692e-8   2.4075516164463356e-8
PRIMVEC 5
2.78165531845067   2.78165531845067   -2.6074575462019123e-7
2.78165531845067   -2.6074575462019123e-7   2.78165531845067
-2.6074575462019123e-7   2.78165531845067   2.78165531845067
PRIMCOORD 5
2        1
13   -3.107996095674465e-7   -3.1079960956744644e-7   -3.1079960956744644e-7   1.495612744714869e-7   1.4956127446723239e-7   1.4956127424727484e-7
15   1.3908279048385062   1.390827904838506   1.390827904838506   -1.495612744714869e-7   -1.4956127446723239e-7   -1.4956127424727484e-7
