
     Program PWSCF v.6.5 starts on 16Apr2020 at 20:57:57 

     This program is part of the open-source Quantum ESPRESSO suite
     for quantum simulation of materials; please cite
         "P. Giannozzi et al., J. Phys.:Condens. Matter 21 395502 (2009);
         "P. Giannozzi et al., J. Phys.:Condens. Matter 29 465901 (2017);
          URL http://www.quantum-espresso.org", 
     in publications or presentations arising from this work. More details at
     http://www.quantum-espresso.org/quote

     Parallel version (MPI), running on     8 processors

     MPI processes distributed on     1 nodes
     R & G space division:  proc/nbgrp/npool/nimage =       8
     Reading input from /wrk/kfg/julia_data/MgS/znse.in_vnscf_vol_2/qe.nscf.in
Warning: card &IONS ignored
Warning: card   ION_DYNAMICS='BFGS', ignored
Warning: card / ignored
Warning: card &CELL ignored
Warning: card  CELL_DYNAMICS = 'BFGS' ignored
Warning: card  CELL_DOFREE = 'ALL' ignored
Warning: card  CELL_FACTOR = 1.0 ignored
Warning: card / ignored
     Message from routine read_cards :
     DEPRECATED: no units specified in CELL_PARAMETERS card

     Current dimensions of program PWSCF are:
     Max number of different atomic species (ntypx) = 10
     Max number of k-points (npk) =  40000
     Max angular momentum in pseudopotentials (lmaxx) =  3
     Message from routine volume:
     axis vectors are left-handed

     Atomic positions and unit cell read from directory:
     /wrk/kfg/julia_data/MgS/znse.in_vnscf_vol_2/qe.nscf.save/                                                                                                                                                                                                       
     Message from routine volume:
     axis vectors are left-handed
 
               file mg.pbesol.UPF: wavefunction(s)  3P renormalized

     Subspace diagonalization in iterative solution of the eigenvalue problem:
     one sub-group per band group will be used
     scalapack distributed-memory algorithm (size of sub-group:  2*  2 procs)

 
     Parallelization info
     --------------------
     sticks:   dense  smooth     PW     G-vecs:    dense   smooth      PW
     Min         120      87     27                 2521     1541     278
     Max         121      88     28                 2524     1543     280
     Sum         967     703    223                20179    12339    2229
 


     bravais-lattice index     =            0
     lattice parameter (alat)  =       7.5513  a.u.
     unit-cell volume          =     304.4710 (a.u.)^3
     number of atoms/cell      =            2
     number of atomic types    =            2
     number of electrons       =        16.00
     number of Kohn-Sham states=           33
     kinetic-energy cutoff     =      45.0000  Ry
     charge density cutoff     =     250.0000  Ry
     Exchange-correlation= SLA  PW   PSX  PSC
                           (   1   4  10   8   0   0   0)
     A smooth kinetic-energy cutoff is imposed at      44.5000 Ry
     height of the smooth step-function =             800.0000 Ry
     width of the smooth step-function  =               1.0000 Ry


     celldm(1)=   7.551275  celldm(2)=   0.000000  celldm(3)=   0.000000
     celldm(4)=   0.000000  celldm(5)=   0.000000  celldm(6)=   0.000000

     crystal axes: (cart. coord. in units of alat)
               a(1) = (   0.707107   0.707107   0.000000 )  
               a(2) = (   0.707107   0.000000   0.707107 )  
               a(3) = (   0.000000   0.707107   0.707107 )  

     reciprocal axes: (cart. coord. in units 2 pi/alat)
               b(1) = (  0.707107  0.707107 -0.707107 )  
               b(2) = (  0.707107 -0.707107  0.707107 )  
               b(3) = ( -0.707107  0.707107  0.707107 )  


     PseudoPot. # 1 for Mg read from file:
     /home/kfg/psuedo/gbrv_1.5/mg.pbesol.UPF
     MD5 check sum: cbba17e5274afd115179030b10be074e
     Pseudo is Ultrasoft, Zval = 10.0
     Generated by new atomic code, or converted to UPF format
     Using radial grid of  821 points,  7 beta functions with: 
                l(1) =   0
                l(2) =   0
                l(3) =   0
                l(4) =   1
                l(5) =   1
                l(6) =   2
                l(7) =   2
     Q(r) pseudized with  8 coefficients,  rinner =    1.200   1.200   1.200
                                                       1.200   1.200

     PseudoPot. # 2 for S  read from file:
     /home/kfg/psuedo/gbrv_1.5/s.pbesol.UPF
     MD5 check sum: 0ccfa86ec6eb59065d10aaae963ef2a7
     Pseudo is Ultrasoft + core correction, Zval =  6.0
     Generated by new atomic code, or converted to UPF format
     Using radial grid of  907 points,  6 beta functions with: 
                l(1) =   0
                l(2) =   0
                l(3) =   1
                l(4) =   1
                l(5) =   2
                l(6) =   2
     Q(r) pseudized with  8 coefficients,  rinner =    1.300   1.300   1.300
                                                       1.300   1.300

     atomic species   valence    mass     pseudopotential
        Mg            10.00    24.31000     Mg( 1.00)
        S              6.00    32.06000     S ( 1.00)

     No symmetry found


                                    s                        frac. trans.

      isym =  1     identity                                     

 cryst.   s( 1) = (     1          0          0      )
                  (     0          1          0      )
                  (     0          0          1      )

 cart.    s( 1) = (  1.0000000  0.0000000  0.0000000 )
                  (  0.0000000  1.0000000  0.0000000 )
                  (  0.0000000  0.0000000  1.0000000 )


   Cartesian axes

     site n.     atom                  positions (alat units)
         1           Mg  tau(   1) = (   0.0000000   0.0000000   0.0000000  )
         2           S   tau(   2) = (   0.3535534   0.3535534   0.3535534  )

   Crystallographic axes

     site n.     atom                  positions (cryst. coord.)
         1           Mg  tau(   1) = (  0.0000000  0.0000000  0.0000000  )
         2           S   tau(   2) = (  0.2500000  0.2500000  0.2500000  )

     number of k points=  1000  Gaussian smearing, width (Ry)=  0.0100
                       cart. coord. in units 2pi/alat
        k(    1) = (   0.0000000   0.0000000   0.0000000), wk =   0.0020000
        k(    2) = (  -0.0707107   0.0707107   0.0707107), wk =   0.0020000
        k(    3) = (  -0.1414214   0.1414214   0.1414214), wk =   0.0020000
        k(    4) = (  -0.2121320   0.2121320   0.2121320), wk =   0.0020000
        k(    5) = (  -0.2828427   0.2828427   0.2828427), wk =   0.0020000
        k(    6) = (   0.3535534  -0.3535534  -0.3535534), wk =   0.0020000
        k(    7) = (   0.2828427  -0.2828427  -0.2828427), wk =   0.0020000
        k(    8) = (   0.2121320  -0.2121320  -0.2121320), wk =   0.0020000
        k(    9) = (   0.1414214  -0.1414214  -0.1414214), wk =   0.0020000
        k(   10) = (   0.0707107  -0.0707107  -0.0707107), wk =   0.0020000
        k(   11) = (   0.0707107  -0.0707107   0.0707107), wk =   0.0020000
        k(   12) = (   0.0000000   0.0000000   0.1414214), wk =   0.0020000
        k(   13) = (  -0.0707107   0.0707107   0.2121320), wk =   0.0020000
        k(   14) = (  -0.1414214   0.1414214   0.2828427), wk =   0.0020000
        k(   15) = (  -0.2121320   0.2121320   0.3535534), wk =   0.0020000
        k(   16) = (   0.4242641  -0.4242641  -0.2828427), wk =   0.0020000
        k(   17) = (   0.3535534  -0.3535534  -0.2121320), wk =   0.0020000
        k(   18) = (   0.2828427  -0.2828427  -0.1414214), wk =   0.0020000
        k(   19) = (   0.2121320  -0.2121320  -0.0707107), wk =   0.0020000
        k(   20) = (   0.1414214  -0.1414214   0.0000000), wk =   0.0020000
        k(   21) = (   0.1414214  -0.1414214   0.1414214), wk =   0.0020000
        k(   22) = (   0.0707107  -0.0707107   0.2121320), wk =   0.0020000
        k(   23) = (   0.0000000   0.0000000   0.2828427), wk =   0.0020000
        k(   24) = (  -0.0707107   0.0707107   0.3535534), wk =   0.0020000
        k(   25) = (  -0.1414214   0.1414214   0.4242641), wk =   0.0020000
        k(   26) = (   0.4949747  -0.4949747  -0.2121320), wk =   0.0020000
        k(   27) = (   0.4242641  -0.4242641  -0.1414214), wk =   0.0020000
        k(   28) = (   0.3535534  -0.3535534  -0.0707107), wk =   0.0020000
        k(   29) = (   0.2828427  -0.2828427   0.0000000), wk =   0.0020000
        k(   30) = (   0.2121320  -0.2121320   0.0707107), wk =   0.0020000
        k(   31) = (   0.2121320  -0.2121320   0.2121320), wk =   0.0020000
        k(   32) = (   0.1414214  -0.1414214   0.2828427), wk =   0.0020000
        k(   33) = (   0.0707107  -0.0707107   0.3535534), wk =   0.0020000
        k(   34) = (   0.0000000   0.0000000   0.4242641), wk =   0.0020000
        k(   35) = (  -0.0707107   0.0707107   0.4949747), wk =   0.0020000
        k(   36) = (   0.5656854  -0.5656854  -0.1414214), wk =   0.0020000
        k(   37) = (   0.4949747  -0.4949747  -0.0707107), wk =   0.0020000
        k(   38) = (   0.4242641  -0.4242641  -0.0000000), wk =   0.0020000
        k(   39) = (   0.3535534  -0.3535534   0.0707107), wk =   0.0020000
        k(   40) = (   0.2828427  -0.2828427   0.1414214), wk =   0.0020000
        k(   41) = (   0.2828427  -0.2828427   0.2828427), wk =   0.0020000
        k(   42) = (   0.2121320  -0.2121320   0.3535534), wk =   0.0020000
        k(   43) = (   0.1414214  -0.1414214   0.4242641), wk =   0.0020000
        k(   44) = (   0.0707107  -0.0707107   0.4949747), wk =   0.0020000
        k(   45) = (   0.0000000   0.0000000   0.5656854), wk =   0.0020000
        k(   46) = (   0.6363961  -0.6363961  -0.0707107), wk =   0.0020000
        k(   47) = (   0.5656854  -0.5656854   0.0000000), wk =   0.0020000
        k(   48) = (   0.4949747  -0.4949747   0.0707107), wk =   0.0020000
        k(   49) = (   0.4242641  -0.4242641   0.1414214), wk =   0.0020000
        k(   50) = (   0.3535534  -0.3535534   0.2121320), wk =   0.0020000
        k(   51) = (  -0.3535534   0.3535534  -0.3535534), wk =   0.0020000
        k(   52) = (  -0.4242641   0.4242641  -0.2828427), wk =   0.0020000
        k(   53) = (  -0.4949747   0.4949747  -0.2121320), wk =   0.0020000
        k(   54) = (  -0.5656854   0.5656854  -0.1414214), wk =   0.0020000
        k(   55) = (  -0.6363961   0.6363961  -0.0707107), wk =   0.0020000
        k(   56) = (   0.0000000   0.0000000  -0.7071068), wk =   0.0020000
        k(   57) = (  -0.0707107   0.0707107  -0.6363961), wk =   0.0020000
        k(   58) = (  -0.1414214   0.1414214  -0.5656854), wk =   0.0020000
        k(   59) = (  -0.2121320   0.2121320  -0.4949747), wk =   0.0020000
        k(   60) = (  -0.2828427   0.2828427  -0.4242641), wk =   0.0020000
        k(   61) = (  -0.2828427   0.2828427  -0.2828427), wk =   0.0020000
        k(   62) = (  -0.3535534   0.3535534  -0.2121320), wk =   0.0020000
        k(   63) = (  -0.4242641   0.4242641  -0.1414214), wk =   0.0020000
        k(   64) = (  -0.4949747   0.4949747  -0.0707107), wk =   0.0020000
        k(   65) = (  -0.5656854   0.5656854   0.0000000), wk =   0.0020000
        k(   66) = (   0.0707107  -0.0707107  -0.6363961), wk =   0.0020000
        k(   67) = (   0.0000000   0.0000000  -0.5656854), wk =   0.0020000
        k(   68) = (  -0.0707107   0.0707107  -0.4949747), wk =   0.0020000
        k(   69) = (  -0.1414214   0.1414214  -0.4242641), wk =   0.0020000
        k(   70) = (  -0.2121320   0.2121320  -0.3535534), wk =   0.0020000
        k(   71) = (  -0.2121320   0.2121320  -0.2121320), wk =   0.0020000
        k(   72) = (  -0.2828427   0.2828427  -0.1414214), wk =   0.0020000
        k(   73) = (  -0.3535534   0.3535534  -0.0707107), wk =   0.0020000
        k(   74) = (  -0.4242641   0.4242641  -0.0000000), wk =   0.0020000
        k(   75) = (  -0.4949747   0.4949747   0.0707107), wk =   0.0020000
        k(   76) = (   0.1414214  -0.1414214  -0.5656854), wk =   0.0020000
        k(   77) = (   0.0707107  -0.0707107  -0.4949747), wk =   0.0020000
        k(   78) = (   0.0000000   0.0000000  -0.4242641), wk =   0.0020000
        k(   79) = (  -0.0707107   0.0707107  -0.3535534), wk =   0.0020000
        k(   80) = (  -0.1414214   0.1414214  -0.2828427), wk =   0.0020000
        k(   81) = (  -0.1414214   0.1414214  -0.1414214), wk =   0.0020000
        k(   82) = (  -0.2121320   0.2121320  -0.0707107), wk =   0.0020000
        k(   83) = (  -0.2828427   0.2828427   0.0000000), wk =   0.0020000
        k(   84) = (  -0.3535534   0.3535534   0.0707107), wk =   0.0020000
        k(   85) = (  -0.4242641   0.4242641   0.1414214), wk =   0.0020000
        k(   86) = (   0.2121320  -0.2121320  -0.4949747), wk =   0.0020000
        k(   87) = (   0.1414214  -0.1414214  -0.4242641), wk =   0.0020000
        k(   88) = (   0.0707107  -0.0707107  -0.3535534), wk =   0.0020000
        k(   89) = (   0.0000000   0.0000000  -0.2828427), wk =   0.0020000
        k(   90) = (  -0.0707107   0.0707107  -0.2121320), wk =   0.0020000
        k(   91) = (  -0.0707107   0.0707107  -0.0707107), wk =   0.0020000
        k(   92) = (  -0.1414214   0.1414214   0.0000000), wk =   0.0020000
        k(   93) = (  -0.2121320   0.2121320   0.0707107), wk =   0.0020000
        k(   94) = (  -0.2828427   0.2828427   0.1414214), wk =   0.0020000
        k(   95) = (  -0.3535534   0.3535534   0.2121320), wk =   0.0020000
        k(   96) = (   0.2828427  -0.2828427  -0.4242641), wk =   0.0020000
        k(   97) = (   0.2121320  -0.2121320  -0.3535534), wk =   0.0020000
        k(   98) = (   0.1414214  -0.1414214  -0.2828427), wk =   0.0020000
        k(   99) = (   0.0707107  -0.0707107  -0.2121320), wk =   0.0020000
        k(  100) = (   0.0000000   0.0000000  -0.1414214), wk =   0.0020000
        k(  101) = (   0.0707107   0.0707107  -0.0707107), wk =   0.0020000
        k(  102) = (   0.0000000   0.1414214   0.0000000), wk =   0.0020000
        k(  103) = (  -0.0707107   0.2121320   0.0707107), wk =   0.0020000
        k(  104) = (  -0.1414214   0.2828427   0.1414214), wk =   0.0020000
        k(  105) = (  -0.2121320   0.3535534   0.2121320), wk =   0.0020000
        k(  106) = (   0.4242641  -0.2828427  -0.4242641), wk =   0.0020000
        k(  107) = (   0.3535534  -0.2121320  -0.3535534), wk =   0.0020000
        k(  108) = (   0.2828427  -0.1414214  -0.2828427), wk =   0.0020000
        k(  109) = (   0.2121320  -0.0707107  -0.2121320), wk =   0.0020000
        k(  110) = (   0.1414214   0.0000000  -0.1414214), wk =   0.0020000
        k(  111) = (   0.1414214   0.0000000   0.0000000), wk =   0.0020000
        k(  112) = (   0.0707107   0.0707107   0.0707107), wk =   0.0020000
        k(  113) = (   0.0000000   0.1414214   0.1414214), wk =   0.0020000
        k(  114) = (  -0.0707107   0.2121320   0.2121320), wk =   0.0020000
        k(  115) = (  -0.1414214   0.2828427   0.2828427), wk =   0.0020000
        k(  116) = (   0.4949747  -0.3535534  -0.3535534), wk =   0.0020000
        k(  117) = (   0.4242641  -0.2828427  -0.2828427), wk =   0.0020000
        k(  118) = (   0.3535534  -0.2121320  -0.2121320), wk =   0.0020000
        k(  119) = (   0.2828427  -0.1414214  -0.1414214), wk =   0.0020000
        k(  120) = (   0.2121320  -0.0707107  -0.0707107), wk =   0.0020000
        k(  121) = (   0.2121320  -0.0707107   0.0707107), wk =   0.0020000
        k(  122) = (   0.1414214   0.0000000   0.1414214), wk =   0.0020000
        k(  123) = (   0.0707107   0.0707107   0.2121320), wk =   0.0020000
        k(  124) = (   0.0000000   0.1414214   0.2828427), wk =   0.0020000
        k(  125) = (  -0.0707107   0.2121320   0.3535534), wk =   0.0020000
        k(  126) = (   0.5656854  -0.4242641  -0.2828427), wk =   0.0020000
        k(  127) = (   0.4949747  -0.3535534  -0.2121320), wk =   0.0020000
        k(  128) = (   0.4242641  -0.2828427  -0.1414214), wk =   0.0020000
        k(  129) = (   0.3535534  -0.2121320  -0.0707107), wk =   0.0020000
        k(  130) = (   0.2828427  -0.1414214   0.0000000), wk =   0.0020000
        k(  131) = (   0.2828427  -0.1414214   0.1414214), wk =   0.0020000
        k(  132) = (   0.2121320  -0.0707107   0.2121320), wk =   0.0020000
        k(  133) = (   0.1414214   0.0000000   0.2828427), wk =   0.0020000
        k(  134) = (   0.0707107   0.0707107   0.3535534), wk =   0.0020000
        k(  135) = (   0.0000000   0.1414214   0.4242641), wk =   0.0020000
        k(  136) = (   0.6363961  -0.4949747  -0.2121320), wk =   0.0020000
        k(  137) = (   0.5656854  -0.4242641  -0.1414214), wk =   0.0020000
        k(  138) = (   0.4949747  -0.3535534  -0.0707107), wk =   0.0020000
        k(  139) = (   0.4242641  -0.2828427   0.0000000), wk =   0.0020000
        k(  140) = (   0.3535534  -0.2121320   0.0707107), wk =   0.0020000
        k(  141) = (   0.3535534  -0.2121320   0.2121320), wk =   0.0020000
        k(  142) = (   0.2828427  -0.1414214   0.2828427), wk =   0.0020000
        k(  143) = (   0.2121320  -0.0707107   0.3535534), wk =   0.0020000
        k(  144) = (   0.1414214   0.0000000   0.4242641), wk =   0.0020000
        k(  145) = (   0.0707107   0.0707107   0.4949747), wk =   0.0020000
        k(  146) = (   0.7071068  -0.5656854  -0.1414214), wk =   0.0020000
        k(  147) = (   0.6363961  -0.4949747  -0.0707107), wk =   0.0020000
        k(  148) = (   0.5656854  -0.4242641  -0.0000000), wk =   0.0020000
        k(  149) = (   0.4949747  -0.3535534   0.0707107), wk =   0.0020000
        k(  150) = (   0.4242641  -0.2828427   0.1414214), wk =   0.0020000
        k(  151) = (  -0.2828427   0.4242641  -0.4242641), wk =   0.0020000
        k(  152) = (  -0.3535534   0.4949747  -0.3535534), wk =   0.0020000
        k(  153) = (  -0.4242641   0.5656854  -0.2828427), wk =   0.0020000
        k(  154) = (  -0.4949747   0.6363961  -0.2121320), wk =   0.0020000
        k(  155) = (  -0.5656854   0.7071068  -0.1414214), wk =   0.0020000
        k(  156) = (   0.0707107   0.0707107  -0.7778175), wk =   0.0020000
        k(  157) = (   0.0000000   0.1414214  -0.7071068), wk =   0.0020000
        k(  158) = (  -0.0707107   0.2121320  -0.6363961), wk =   0.0020000
        k(  159) = (  -0.1414214   0.2828427  -0.5656854), wk =   0.0020000
        k(  160) = (  -0.2121320   0.3535534  -0.4949747), wk =   0.0020000
        k(  161) = (  -0.2121320   0.3535534  -0.3535534), wk =   0.0020000
        k(  162) = (  -0.2828427   0.4242641  -0.2828427), wk =   0.0020000
        k(  163) = (  -0.3535534   0.4949747  -0.2121320), wk =   0.0020000
        k(  164) = (  -0.4242641   0.5656854  -0.1414214), wk =   0.0020000
        k(  165) = (  -0.4949747   0.6363961  -0.0707107), wk =   0.0020000
        k(  166) = (   0.1414214   0.0000000  -0.7071068), wk =   0.0020000
        k(  167) = (   0.0707107   0.0707107  -0.6363961), wk =   0.0020000
        k(  168) = (   0.0000000   0.1414214  -0.5656854), wk =   0.0020000
        k(  169) = (  -0.0707107   0.2121320  -0.4949747), wk =   0.0020000
        k(  170) = (  -0.1414214   0.2828427  -0.4242641), wk =   0.0020000
        k(  171) = (  -0.1414214   0.2828427  -0.2828427), wk =   0.0020000
        k(  172) = (  -0.2121320   0.3535534  -0.2121320), wk =   0.0020000
        k(  173) = (  -0.2828427   0.4242641  -0.1414214), wk =   0.0020000
        k(  174) = (  -0.3535534   0.4949747  -0.0707107), wk =   0.0020000
        k(  175) = (  -0.4242641   0.5656854   0.0000000), wk =   0.0020000
        k(  176) = (   0.2121320  -0.0707107  -0.6363961), wk =   0.0020000
        k(  177) = (   0.1414214   0.0000000  -0.5656854), wk =   0.0020000
        k(  178) = (   0.0707107   0.0707107  -0.4949747), wk =   0.0020000
        k(  179) = (  -0.0000000   0.1414214  -0.4242641), wk =   0.0020000
        k(  180) = (  -0.0707107   0.2121320  -0.3535534), wk =   0.0020000
        k(  181) = (  -0.0707107   0.2121320  -0.2121320), wk =   0.0020000
        k(  182) = (  -0.1414214   0.2828427  -0.1414214), wk =   0.0020000
        k(  183) = (  -0.2121320   0.3535534  -0.0707107), wk =   0.0020000
        k(  184) = (  -0.2828427   0.4242641   0.0000000), wk =   0.0020000
        k(  185) = (  -0.3535534   0.4949747   0.0707107), wk =   0.0020000
        k(  186) = (   0.2828427  -0.1414214  -0.5656854), wk =   0.0020000
        k(  187) = (   0.2121320  -0.0707107  -0.4949747), wk =   0.0020000
        k(  188) = (   0.1414214  -0.0000000  -0.4242641), wk =   0.0020000
        k(  189) = (   0.0707107   0.0707107  -0.3535534), wk =   0.0020000
        k(  190) = (   0.0000000   0.1414214  -0.2828427), wk =   0.0020000
        k(  191) = (   0.0000000   0.1414214  -0.1414214), wk =   0.0020000
        k(  192) = (  -0.0707107   0.2121320  -0.0707107), wk =   0.0020000
        k(  193) = (  -0.1414214   0.2828427   0.0000000), wk =   0.0020000
        k(  194) = (  -0.2121320   0.3535534   0.0707107), wk =   0.0020000
        k(  195) = (  -0.2828427   0.4242641   0.1414214), wk =   0.0020000
        k(  196) = (   0.3535534  -0.2121320  -0.4949747), wk =   0.0020000
        k(  197) = (   0.2828427  -0.1414214  -0.4242641), wk =   0.0020000
        k(  198) = (   0.2121320  -0.0707107  -0.3535534), wk =   0.0020000
        k(  199) = (   0.1414214   0.0000000  -0.2828427), wk =   0.0020000
        k(  200) = (   0.0707107   0.0707107  -0.2121320), wk =   0.0020000
        k(  201) = (   0.1414214   0.1414214  -0.1414214), wk =   0.0020000
        k(  202) = (   0.0707107   0.2121320  -0.0707107), wk =   0.0020000
        k(  203) = (   0.0000000   0.2828427   0.0000000), wk =   0.0020000
        k(  204) = (  -0.0707107   0.3535534   0.0707107), wk =   0.0020000
        k(  205) = (  -0.1414214   0.4242641   0.1414214), wk =   0.0020000
        k(  206) = (   0.4949747  -0.2121320  -0.4949747), wk =   0.0020000
        k(  207) = (   0.4242641  -0.1414214  -0.4242641), wk =   0.0020000
        k(  208) = (   0.3535534  -0.0707107  -0.3535534), wk =   0.0020000
        k(  209) = (   0.2828427   0.0000000  -0.2828427), wk =   0.0020000
        k(  210) = (   0.2121320   0.0707107  -0.2121320), wk =   0.0020000
        k(  211) = (   0.2121320   0.0707107  -0.0707107), wk =   0.0020000
        k(  212) = (   0.1414214   0.1414214   0.0000000), wk =   0.0020000
        k(  213) = (   0.0707107   0.2121320   0.0707107), wk =   0.0020000
        k(  214) = (   0.0000000   0.2828427   0.1414214), wk =   0.0020000
        k(  215) = (  -0.0707107   0.3535534   0.2121320), wk =   0.0020000
        k(  216) = (   0.5656854  -0.2828427  -0.4242641), wk =   0.0020000
        k(  217) = (   0.4949747  -0.2121320  -0.3535534), wk =   0.0020000
        k(  218) = (   0.4242641  -0.1414214  -0.2828427), wk =   0.0020000
        k(  219) = (   0.3535534  -0.0707107  -0.2121320), wk =   0.0020000
        k(  220) = (   0.2828427   0.0000000  -0.1414214), wk =   0.0020000
        k(  221) = (   0.2828427   0.0000000   0.0000000), wk =   0.0020000
        k(  222) = (   0.2121320   0.0707107   0.0707107), wk =   0.0020000
        k(  223) = (   0.1414214   0.1414214   0.1414214), wk =   0.0020000
        k(  224) = (   0.0707107   0.2121320   0.2121320), wk =   0.0020000
        k(  225) = (   0.0000000   0.2828427   0.2828427), wk =   0.0020000
        k(  226) = (   0.6363961  -0.3535534  -0.3535534), wk =   0.0020000
        k(  227) = (   0.5656854  -0.2828427  -0.2828427), wk =   0.0020000
        k(  228) = (   0.4949747  -0.2121320  -0.2121320), wk =   0.0020000
        k(  229) = (   0.4242641  -0.1414214  -0.1414214), wk =   0.0020000
        k(  230) = (   0.3535534  -0.0707107  -0.0707107), wk =   0.0020000
        k(  231) = (   0.3535534  -0.0707107   0.0707107), wk =   0.0020000
        k(  232) = (   0.2828427   0.0000000   0.1414214), wk =   0.0020000
        k(  233) = (   0.2121320   0.0707107   0.2121320), wk =   0.0020000
        k(  234) = (   0.1414214   0.1414214   0.2828427), wk =   0.0020000
        k(  235) = (   0.0707107   0.2121320   0.3535534), wk =   0.0020000
        k(  236) = (   0.7071068  -0.4242641  -0.2828427), wk =   0.0020000
        k(  237) = (   0.6363961  -0.3535534  -0.2121320), wk =   0.0020000
        k(  238) = (   0.5656854  -0.2828427  -0.1414214), wk =   0.0020000
        k(  239) = (   0.4949747  -0.2121320  -0.0707107), wk =   0.0020000
        k(  240) = (   0.4242641  -0.1414214   0.0000000), wk =   0.0020000
        k(  241) = (   0.4242641  -0.1414214   0.1414214), wk =   0.0020000
        k(  242) = (   0.3535534  -0.0707107   0.2121320), wk =   0.0020000
        k(  243) = (   0.2828427   0.0000000   0.2828427), wk =   0.0020000
        k(  244) = (   0.2121320   0.0707107   0.3535534), wk =   0.0020000
        k(  245) = (   0.1414214   0.1414214   0.4242641), wk =   0.0020000
        k(  246) = (   0.7778175  -0.4949747  -0.2121320), wk =   0.0020000
        k(  247) = (   0.7071068  -0.4242641  -0.1414214), wk =   0.0020000
        k(  248) = (   0.6363961  -0.3535534  -0.0707107), wk =   0.0020000
        k(  249) = (   0.5656854  -0.2828427   0.0000000), wk =   0.0020000
        k(  250) = (   0.4949747  -0.2121320   0.0707107), wk =   0.0020000
        k(  251) = (  -0.2121320   0.4949747  -0.4949747), wk =   0.0020000
        k(  252) = (  -0.2828427   0.5656854  -0.4242641), wk =   0.0020000
        k(  253) = (  -0.3535534   0.6363961  -0.3535534), wk =   0.0020000
        k(  254) = (  -0.4242641   0.7071068  -0.2828427), wk =   0.0020000
        k(  255) = (  -0.4949747   0.7778175  -0.2121320), wk =   0.0020000
        k(  256) = (   0.1414214   0.1414214  -0.8485281), wk =   0.0020000
        k(  257) = (   0.0707107   0.2121320  -0.7778175), wk =   0.0020000
        k(  258) = (   0.0000000   0.2828427  -0.7071068), wk =   0.0020000
        k(  259) = (  -0.0707107   0.3535534  -0.6363961), wk =   0.0020000
        k(  260) = (  -0.1414214   0.4242641  -0.5656854), wk =   0.0020000
        k(  261) = (  -0.1414214   0.4242641  -0.4242641), wk =   0.0020000
        k(  262) = (  -0.2121320   0.4949747  -0.3535534), wk =   0.0020000
        k(  263) = (  -0.2828427   0.5656854  -0.2828427), wk =   0.0020000
        k(  264) = (  -0.3535534   0.6363961  -0.2121320), wk =   0.0020000
        k(  265) = (  -0.4242641   0.7071068  -0.1414214), wk =   0.0020000
        k(  266) = (   0.2121320   0.0707107  -0.7778175), wk =   0.0020000
        k(  267) = (   0.1414214   0.1414214  -0.7071068), wk =   0.0020000
        k(  268) = (   0.0707107   0.2121320  -0.6363961), wk =   0.0020000
        k(  269) = (  -0.0000000   0.2828427  -0.5656854), wk =   0.0020000
        k(  270) = (  -0.0707107   0.3535534  -0.4949747), wk =   0.0020000
        k(  271) = (  -0.0707107   0.3535534  -0.3535534), wk =   0.0020000
        k(  272) = (  -0.1414214   0.4242641  -0.2828427), wk =   0.0020000
        k(  273) = (  -0.2121320   0.4949747  -0.2121320), wk =   0.0020000
        k(  274) = (  -0.2828427   0.5656854  -0.1414214), wk =   0.0020000
        k(  275) = (  -0.3535534   0.6363961  -0.0707107), wk =   0.0020000
        k(  276) = (   0.2828427   0.0000000  -0.7071068), wk =   0.0020000
        k(  277) = (   0.2121320   0.0707107  -0.6363961), wk =   0.0020000
        k(  278) = (   0.1414214   0.1414214  -0.5656854), wk =   0.0020000
        k(  279) = (   0.0707107   0.2121320  -0.4949747), wk =   0.0020000
        k(  280) = (  -0.0000000   0.2828427  -0.4242641), wk =   0.0020000
        k(  281) = (   0.0000000   0.2828427  -0.2828427), wk =   0.0020000
        k(  282) = (  -0.0707107   0.3535534  -0.2121320), wk =   0.0020000
        k(  283) = (  -0.1414214   0.4242641  -0.1414214), wk =   0.0020000
        k(  284) = (  -0.2121320   0.4949747  -0.0707107), wk =   0.0020000
        k(  285) = (  -0.2828427   0.5656854   0.0000000), wk =   0.0020000
        k(  286) = (   0.3535534  -0.0707107  -0.6363961), wk =   0.0020000
        k(  287) = (   0.2828427   0.0000000  -0.5656854), wk =   0.0020000
        k(  288) = (   0.2121320   0.0707107  -0.4949747), wk =   0.0020000
        k(  289) = (   0.1414214   0.1414214  -0.4242641), wk =   0.0020000
        k(  290) = (   0.0707107   0.2121320  -0.3535534), wk =   0.0020000
        k(  291) = (   0.0707107   0.2121320  -0.2121320), wk =   0.0020000
        k(  292) = (   0.0000000   0.2828427  -0.1414214), wk =   0.0020000
        k(  293) = (  -0.0707107   0.3535534  -0.0707107), wk =   0.0020000
        k(  294) = (  -0.1414214   0.4242641   0.0000000), wk =   0.0020000
        k(  295) = (  -0.2121320   0.4949747   0.0707107), wk =   0.0020000
        k(  296) = (   0.4242641  -0.1414214  -0.5656854), wk =   0.0020000
        k(  297) = (   0.3535534  -0.0707107  -0.4949747), wk =   0.0020000
        k(  298) = (   0.2828427  -0.0000000  -0.4242641), wk =   0.0020000
        k(  299) = (   0.2121320   0.0707107  -0.3535534), wk =   0.0020000
        k(  300) = (   0.1414214   0.1414214  -0.2828427), wk =   0.0020000
        k(  301) = (   0.2121320   0.2121320  -0.2121320), wk =   0.0020000
        k(  302) = (   0.1414214   0.2828427  -0.1414214), wk =   0.0020000
        k(  303) = (   0.0707107   0.3535534  -0.0707107), wk =   0.0020000
        k(  304) = (   0.0000000   0.4242641   0.0000000), wk =   0.0020000
        k(  305) = (  -0.0707107   0.4949747   0.0707107), wk =   0.0020000
        k(  306) = (   0.5656854  -0.1414214  -0.5656854), wk =   0.0020000
        k(  307) = (   0.4949747  -0.0707107  -0.4949747), wk =   0.0020000
        k(  308) = (   0.4242641  -0.0000000  -0.4242641), wk =   0.0020000
        k(  309) = (   0.3535534   0.0707107  -0.3535534), wk =   0.0020000
        k(  310) = (   0.2828427   0.1414214  -0.2828427), wk =   0.0020000
        k(  311) = (   0.2828427   0.1414214  -0.1414214), wk =   0.0020000
        k(  312) = (   0.2121320   0.2121320  -0.0707107), wk =   0.0020000
        k(  313) = (   0.1414214   0.2828427   0.0000000), wk =   0.0020000
        k(  314) = (   0.0707107   0.3535534   0.0707107), wk =   0.0020000
        k(  315) = (   0.0000000   0.4242641   0.1414214), wk =   0.0020000
        k(  316) = (   0.6363961  -0.2121320  -0.4949747), wk =   0.0020000
        k(  317) = (   0.5656854  -0.1414214  -0.4242641), wk =   0.0020000
        k(  318) = (   0.4949747  -0.0707107  -0.3535534), wk =   0.0020000
        k(  319) = (   0.4242641   0.0000000  -0.2828427), wk =   0.0020000
        k(  320) = (   0.3535534   0.0707107  -0.2121320), wk =   0.0020000
        k(  321) = (   0.3535534   0.0707107  -0.0707107), wk =   0.0020000
        k(  322) = (   0.2828427   0.1414214   0.0000000), wk =   0.0020000
        k(  323) = (   0.2121320   0.2121320   0.0707107), wk =   0.0020000
        k(  324) = (   0.1414214   0.2828427   0.1414214), wk =   0.0020000
        k(  325) = (   0.0707107   0.3535534   0.2121320), wk =   0.0020000
        k(  326) = (   0.7071068  -0.2828427  -0.4242641), wk =   0.0020000
        k(  327) = (   0.6363961  -0.2121320  -0.3535534), wk =   0.0020000
        k(  328) = (   0.5656854  -0.1414214  -0.2828427), wk =   0.0020000
        k(  329) = (   0.4949747  -0.0707107  -0.2121320), wk =   0.0020000
        k(  330) = (   0.4242641   0.0000000  -0.1414214), wk =   0.0020000
        k(  331) = (   0.4242641   0.0000000   0.0000000), wk =   0.0020000
        k(  332) = (   0.3535534   0.0707107   0.0707107), wk =   0.0020000
        k(  333) = (   0.2828427   0.1414214   0.1414214), wk =   0.0020000
        k(  334) = (   0.2121320   0.2121320   0.2121320), wk =   0.0020000
        k(  335) = (   0.1414214   0.2828427   0.2828427), wk =   0.0020000
        k(  336) = (   0.7778175  -0.3535534  -0.3535534), wk =   0.0020000
        k(  337) = (   0.7071068  -0.2828427  -0.2828427), wk =   0.0020000
        k(  338) = (   0.6363961  -0.2121320  -0.2121320), wk =   0.0020000
        k(  339) = (   0.5656854  -0.1414214  -0.1414214), wk =   0.0020000
        k(  340) = (   0.4949747  -0.0707107  -0.0707107), wk =   0.0020000
        k(  341) = (   0.4949747  -0.0707107   0.0707107), wk =   0.0020000
        k(  342) = (   0.4242641   0.0000000   0.1414214), wk =   0.0020000
        k(  343) = (   0.3535534   0.0707107   0.2121320), wk =   0.0020000
        k(  344) = (   0.2828427   0.1414214   0.2828427), wk =   0.0020000
        k(  345) = (   0.2121320   0.2121320   0.3535534), wk =   0.0020000
        k(  346) = (   0.8485281  -0.4242641  -0.2828427), wk =   0.0020000
        k(  347) = (   0.7778175  -0.3535534  -0.2121320), wk =   0.0020000
        k(  348) = (   0.7071068  -0.2828427  -0.1414214), wk =   0.0020000
        k(  349) = (   0.6363961  -0.2121320  -0.0707107), wk =   0.0020000
        k(  350) = (   0.5656854  -0.1414214   0.0000000), wk =   0.0020000
        k(  351) = (  -0.1414214   0.5656854  -0.5656854), wk =   0.0020000
        k(  352) = (  -0.2121320   0.6363961  -0.4949747), wk =   0.0020000
        k(  353) = (  -0.2828427   0.7071068  -0.4242641), wk =   0.0020000
        k(  354) = (  -0.3535534   0.7778175  -0.3535534), wk =   0.0020000
        k(  355) = (  -0.4242641   0.8485281  -0.2828427), wk =   0.0020000
        k(  356) = (   0.2121320   0.2121320  -0.9192388), wk =   0.0020000
        k(  357) = (   0.1414214   0.2828427  -0.8485281), wk =   0.0020000
        k(  358) = (   0.0707107   0.3535534  -0.7778175), wk =   0.0020000
        k(  359) = (  -0.0000000   0.4242641  -0.7071068), wk =   0.0020000
        k(  360) = (  -0.0707107   0.4949747  -0.6363961), wk =   0.0020000
        k(  361) = (  -0.0707107   0.4949747  -0.4949747), wk =   0.0020000
        k(  362) = (  -0.1414214   0.5656854  -0.4242641), wk =   0.0020000
        k(  363) = (  -0.2121320   0.6363961  -0.3535534), wk =   0.0020000
        k(  364) = (  -0.2828427   0.7071068  -0.2828427), wk =   0.0020000
        k(  365) = (  -0.3535534   0.7778175  -0.2121320), wk =   0.0020000
        k(  366) = (   0.2828427   0.1414214  -0.8485281), wk =   0.0020000
        k(  367) = (   0.2121320   0.2121320  -0.7778175), wk =   0.0020000
        k(  368) = (   0.1414214   0.2828427  -0.7071068), wk =   0.0020000
        k(  369) = (   0.0707107   0.3535534  -0.6363961), wk =   0.0020000
        k(  370) = (  -0.0000000   0.4242641  -0.5656854), wk =   0.0020000
        k(  371) = (  -0.0000000   0.4242641  -0.4242641), wk =   0.0020000
        k(  372) = (  -0.0707107   0.4949747  -0.3535534), wk =   0.0020000
        k(  373) = (  -0.1414214   0.5656854  -0.2828427), wk =   0.0020000
        k(  374) = (  -0.2121320   0.6363961  -0.2121320), wk =   0.0020000
        k(  375) = (  -0.2828427   0.7071068  -0.1414214), wk =   0.0020000
        k(  376) = (   0.3535534   0.0707107  -0.7778175), wk =   0.0020000
        k(  377) = (   0.2828427   0.1414214  -0.7071068), wk =   0.0020000
        k(  378) = (   0.2121320   0.2121320  -0.6363961), wk =   0.0020000
        k(  379) = (   0.1414214   0.2828427  -0.5656854), wk =   0.0020000
        k(  380) = (   0.0707107   0.3535534  -0.4949747), wk =   0.0020000
        k(  381) = (   0.0707107   0.3535534  -0.3535534), wk =   0.0020000
        k(  382) = (   0.0000000   0.4242641  -0.2828427), wk =   0.0020000
        k(  383) = (  -0.0707107   0.4949747  -0.2121320), wk =   0.0020000
        k(  384) = (  -0.1414214   0.5656854  -0.1414214), wk =   0.0020000
        k(  385) = (  -0.2121320   0.6363961  -0.0707107), wk =   0.0020000
        k(  386) = (   0.4242641   0.0000000  -0.7071068), wk =   0.0020000
        k(  387) = (   0.3535534   0.0707107  -0.6363961), wk =   0.0020000
        k(  388) = (   0.2828427   0.1414214  -0.5656854), wk =   0.0020000
        k(  389) = (   0.2121320   0.2121320  -0.4949747), wk =   0.0020000
        k(  390) = (   0.1414214   0.2828427  -0.4242641), wk =   0.0020000
        k(  391) = (   0.1414214   0.2828427  -0.2828427), wk =   0.0020000
        k(  392) = (   0.0707107   0.3535534  -0.2121320), wk =   0.0020000
        k(  393) = (   0.0000000   0.4242641  -0.1414214), wk =   0.0020000
        k(  394) = (  -0.0707107   0.4949747  -0.0707107), wk =   0.0020000
        k(  395) = (  -0.1414214   0.5656854   0.0000000), wk =   0.0020000
        k(  396) = (   0.4949747  -0.0707107  -0.6363961), wk =   0.0020000
        k(  397) = (   0.4242641   0.0000000  -0.5656854), wk =   0.0020000
        k(  398) = (   0.3535534   0.0707107  -0.4949747), wk =   0.0020000
        k(  399) = (   0.2828427   0.1414214  -0.4242641), wk =   0.0020000
        k(  400) = (   0.2121320   0.2121320  -0.3535534), wk =   0.0020000
        k(  401) = (   0.2828427   0.2828427  -0.2828427), wk =   0.0020000
        k(  402) = (   0.2121320   0.3535534  -0.2121320), wk =   0.0020000
        k(  403) = (   0.1414214   0.4242641  -0.1414214), wk =   0.0020000
        k(  404) = (   0.0707107   0.4949747  -0.0707107), wk =   0.0020000
        k(  405) = (   0.0000000   0.5656854   0.0000000), wk =   0.0020000
        k(  406) = (   0.6363961  -0.0707107  -0.6363961), wk =   0.0020000
        k(  407) = (   0.5656854   0.0000000  -0.5656854), wk =   0.0020000
        k(  408) = (   0.4949747   0.0707107  -0.4949747), wk =   0.0020000
        k(  409) = (   0.4242641   0.1414214  -0.4242641), wk =   0.0020000
        k(  410) = (   0.3535534   0.2121320  -0.3535534), wk =   0.0020000
        k(  411) = (   0.3535534   0.2121320  -0.2121320), wk =   0.0020000
        k(  412) = (   0.2828427   0.2828427  -0.1414214), wk =   0.0020000
        k(  413) = (   0.2121320   0.3535534  -0.0707107), wk =   0.0020000
        k(  414) = (   0.1414214   0.4242641   0.0000000), wk =   0.0020000
        k(  415) = (   0.0707107   0.4949747   0.0707107), wk =   0.0020000
        k(  416) = (   0.7071068  -0.1414214  -0.5656854), wk =   0.0020000
        k(  417) = (   0.6363961  -0.0707107  -0.4949747), wk =   0.0020000
        k(  418) = (   0.5656854  -0.0000000  -0.4242641), wk =   0.0020000
        k(  419) = (   0.4949747   0.0707107  -0.3535534), wk =   0.0020000
        k(  420) = (   0.4242641   0.1414214  -0.2828427), wk =   0.0020000
        k(  421) = (   0.4242641   0.1414214  -0.1414214), wk =   0.0020000
        k(  422) = (   0.3535534   0.2121320  -0.0707107), wk =   0.0020000
        k(  423) = (   0.2828427   0.2828427   0.0000000), wk =   0.0020000
        k(  424) = (   0.2121320   0.3535534   0.0707107), wk =   0.0020000
        k(  425) = (   0.1414214   0.4242641   0.1414214), wk =   0.0020000
        k(  426) = (   0.7778175  -0.2121320  -0.4949747), wk =   0.0020000
        k(  427) = (   0.7071068  -0.1414214  -0.4242641), wk =   0.0020000
        k(  428) = (   0.6363961  -0.0707107  -0.3535534), wk =   0.0020000
        k(  429) = (   0.5656854   0.0000000  -0.2828427), wk =   0.0020000
        k(  430) = (   0.4949747   0.0707107  -0.2121320), wk =   0.0020000
        k(  431) = (   0.4949747   0.0707107  -0.0707107), wk =   0.0020000
        k(  432) = (   0.4242641   0.1414214   0.0000000), wk =   0.0020000
        k(  433) = (   0.3535534   0.2121320   0.0707107), wk =   0.0020000
        k(  434) = (   0.2828427   0.2828427   0.1414214), wk =   0.0020000
        k(  435) = (   0.2121320   0.3535534   0.2121320), wk =   0.0020000
        k(  436) = (   0.8485281  -0.2828427  -0.4242641), wk =   0.0020000
        k(  437) = (   0.7778175  -0.2121320  -0.3535534), wk =   0.0020000
        k(  438) = (   0.7071068  -0.1414214  -0.2828427), wk =   0.0020000
        k(  439) = (   0.6363961  -0.0707107  -0.2121320), wk =   0.0020000
        k(  440) = (   0.5656854   0.0000000  -0.1414214), wk =   0.0020000
        k(  441) = (   0.5656854   0.0000000   0.0000000), wk =   0.0020000
        k(  442) = (   0.4949747   0.0707107   0.0707107), wk =   0.0020000
        k(  443) = (   0.4242641   0.1414214   0.1414214), wk =   0.0020000
        k(  444) = (   0.3535534   0.2121320   0.2121320), wk =   0.0020000
        k(  445) = (   0.2828427   0.2828427   0.2828427), wk =   0.0020000
        k(  446) = (   0.9192388  -0.3535534  -0.3535534), wk =   0.0020000
        k(  447) = (   0.8485281  -0.2828427  -0.2828427), wk =   0.0020000
        k(  448) = (   0.7778175  -0.2121320  -0.2121320), wk =   0.0020000
        k(  449) = (   0.7071068  -0.1414214  -0.1414214), wk =   0.0020000
        k(  450) = (   0.6363961  -0.0707107  -0.0707107), wk =   0.0020000
        k(  451) = (  -0.0707107   0.6363961  -0.6363961), wk =   0.0020000
        k(  452) = (  -0.1414214   0.7071068  -0.5656854), wk =   0.0020000
        k(  453) = (  -0.2121320   0.7778175  -0.4949747), wk =   0.0020000
        k(  454) = (  -0.2828427   0.8485281  -0.4242641), wk =   0.0020000
        k(  455) = (  -0.3535534   0.9192388  -0.3535534), wk =   0.0020000
        k(  456) = (   0.2828427   0.2828427  -0.9899495), wk =   0.0020000
        k(  457) = (   0.2121320   0.3535534  -0.9192388), wk =   0.0020000
        k(  458) = (   0.1414214   0.4242641  -0.8485281), wk =   0.0020000
        k(  459) = (   0.0707107   0.4949747  -0.7778175), wk =   0.0020000
        k(  460) = (  -0.0000000   0.5656854  -0.7071068), wk =   0.0020000
        k(  461) = (   0.0000000   0.5656854  -0.5656854), wk =   0.0020000
        k(  462) = (  -0.0707107   0.6363961  -0.4949747), wk =   0.0020000
        k(  463) = (  -0.1414214   0.7071068  -0.4242641), wk =   0.0020000
        k(  464) = (  -0.2121320   0.7778175  -0.3535534), wk =   0.0020000
        k(  465) = (  -0.2828427   0.8485281  -0.2828427), wk =   0.0020000
        k(  466) = (   0.3535534   0.2121320  -0.9192388), wk =   0.0020000
        k(  467) = (   0.2828427   0.2828427  -0.8485281), wk =   0.0020000
        k(  468) = (   0.2121320   0.3535534  -0.7778175), wk =   0.0020000
        k(  469) = (   0.1414214   0.4242641  -0.7071068), wk =   0.0020000
        k(  470) = (   0.0707107   0.4949747  -0.6363961), wk =   0.0020000
        k(  471) = (   0.0707107   0.4949747  -0.4949747), wk =   0.0020000
        k(  472) = (  -0.0000000   0.5656854  -0.4242641), wk =   0.0020000
        k(  473) = (  -0.0707107   0.6363961  -0.3535534), wk =   0.0020000
        k(  474) = (  -0.1414214   0.7071068  -0.2828427), wk =   0.0020000
        k(  475) = (  -0.2121320   0.7778175  -0.2121320), wk =   0.0020000
        k(  476) = (   0.4242641   0.1414214  -0.8485281), wk =   0.0020000
        k(  477) = (   0.3535534   0.2121320  -0.7778175), wk =   0.0020000
        k(  478) = (   0.2828427   0.2828427  -0.7071068), wk =   0.0020000
        k(  479) = (   0.2121320   0.3535534  -0.6363961), wk =   0.0020000
        k(  480) = (   0.1414214   0.4242641  -0.5656854), wk =   0.0020000
        k(  481) = (   0.1414214   0.4242641  -0.4242641), wk =   0.0020000
        k(  482) = (   0.0707107   0.4949747  -0.3535534), wk =   0.0020000
        k(  483) = (   0.0000000   0.5656854  -0.2828427), wk =   0.0020000
        k(  484) = (  -0.0707107   0.6363961  -0.2121320), wk =   0.0020000
        k(  485) = (  -0.1414214   0.7071068  -0.1414214), wk =   0.0020000
        k(  486) = (   0.4949747   0.0707107  -0.7778175), wk =   0.0020000
        k(  487) = (   0.4242641   0.1414214  -0.7071068), wk =   0.0020000
        k(  488) = (   0.3535534   0.2121320  -0.6363961), wk =   0.0020000
        k(  489) = (   0.2828427   0.2828427  -0.5656854), wk =   0.0020000
        k(  490) = (   0.2121320   0.3535534  -0.4949747), wk =   0.0020000
        k(  491) = (   0.2121320   0.3535534  -0.3535534), wk =   0.0020000
        k(  492) = (   0.1414214   0.4242641  -0.2828427), wk =   0.0020000
        k(  493) = (   0.0707107   0.4949747  -0.2121320), wk =   0.0020000
        k(  494) = (   0.0000000   0.5656854  -0.1414214), wk =   0.0020000
        k(  495) = (  -0.0707107   0.6363961  -0.0707107), wk =   0.0020000
        k(  496) = (   0.5656854   0.0000000  -0.7071068), wk =   0.0020000
        k(  497) = (   0.4949747   0.0707107  -0.6363961), wk =   0.0020000
        k(  498) = (   0.4242641   0.1414214  -0.5656854), wk =   0.0020000
        k(  499) = (   0.3535534   0.2121320  -0.4949747), wk =   0.0020000
        k(  500) = (   0.2828427   0.2828427  -0.4242641), wk =   0.0020000
        k(  501) = (  -0.3535534  -0.3535534   0.3535534), wk =   0.0020000
        k(  502) = (  -0.4242641  -0.2828427   0.4242641), wk =   0.0020000
        k(  503) = (  -0.4949747  -0.2121320   0.4949747), wk =   0.0020000
        k(  504) = (  -0.5656854  -0.1414214   0.5656854), wk =   0.0020000
        k(  505) = (  -0.6363961  -0.0707107   0.6363961), wk =   0.0020000
        k(  506) = (   0.0000000  -0.7071068   0.0000000), wk =   0.0020000
        k(  507) = (  -0.0707107  -0.6363961   0.0707107), wk =   0.0020000
        k(  508) = (  -0.1414214  -0.5656854   0.1414214), wk =   0.0020000
        k(  509) = (  -0.2121320  -0.4949747   0.2121320), wk =   0.0020000
        k(  510) = (  -0.2828427  -0.4242641   0.2828427), wk =   0.0020000
        k(  511) = (  -0.2828427  -0.4242641   0.4242641), wk =   0.0020000
        k(  512) = (  -0.3535534  -0.3535534   0.4949747), wk =   0.0020000
        k(  513) = (  -0.4242641  -0.2828427   0.5656854), wk =   0.0020000
        k(  514) = (  -0.4949747  -0.2121320   0.6363961), wk =   0.0020000
        k(  515) = (  -0.5656854  -0.1414214   0.7071068), wk =   0.0020000
        k(  516) = (   0.0707107  -0.7778175   0.0707107), wk =   0.0020000
        k(  517) = (   0.0000000  -0.7071068   0.1414214), wk =   0.0020000
        k(  518) = (  -0.0707107  -0.6363961   0.2121320), wk =   0.0020000
        k(  519) = (  -0.1414214  -0.5656854   0.2828427), wk =   0.0020000
        k(  520) = (  -0.2121320  -0.4949747   0.3535534), wk =   0.0020000
        k(  521) = (  -0.2121320  -0.4949747   0.4949747), wk =   0.0020000
        k(  522) = (  -0.2828427  -0.4242641   0.5656854), wk =   0.0020000
        k(  523) = (  -0.3535534  -0.3535534   0.6363961), wk =   0.0020000
        k(  524) = (  -0.4242641  -0.2828427   0.7071068), wk =   0.0020000
        k(  525) = (  -0.4949747  -0.2121320   0.7778175), wk =   0.0020000
        k(  526) = (   0.1414214  -0.8485281   0.1414214), wk =   0.0020000
        k(  527) = (   0.0707107  -0.7778175   0.2121320), wk =   0.0020000
        k(  528) = (   0.0000000  -0.7071068   0.2828427), wk =   0.0020000
        k(  529) = (  -0.0707107  -0.6363961   0.3535534), wk =   0.0020000
        k(  530) = (  -0.1414214  -0.5656854   0.4242641), wk =   0.0020000
        k(  531) = (  -0.1414214  -0.5656854   0.5656854), wk =   0.0020000
        k(  532) = (  -0.2121320  -0.4949747   0.6363961), wk =   0.0020000
        k(  533) = (  -0.2828427  -0.4242641   0.7071068), wk =   0.0020000
        k(  534) = (  -0.3535534  -0.3535534   0.7778175), wk =   0.0020000
        k(  535) = (  -0.4242641  -0.2828427   0.8485281), wk =   0.0020000
        k(  536) = (   0.2121320  -0.9192388   0.2121320), wk =   0.0020000
        k(  537) = (   0.1414214  -0.8485281   0.2828427), wk =   0.0020000
        k(  538) = (   0.0707107  -0.7778175   0.3535534), wk =   0.0020000
        k(  539) = (  -0.0000000  -0.7071068   0.4242641), wk =   0.0020000
        k(  540) = (  -0.0707107  -0.6363961   0.4949747), wk =   0.0020000
        k(  541) = (  -0.0707107  -0.6363961   0.6363961), wk =   0.0020000
        k(  542) = (  -0.1414214  -0.5656854   0.7071068), wk =   0.0020000
        k(  543) = (  -0.2121320  -0.4949747   0.7778175), wk =   0.0020000
        k(  544) = (  -0.2828427  -0.4242641   0.8485281), wk =   0.0020000
        k(  545) = (  -0.3535534  -0.3535534   0.9192388), wk =   0.0020000
        k(  546) = (   0.2828427  -0.9899495   0.2828427), wk =   0.0020000
        k(  547) = (   0.2121320  -0.9192388   0.3535534), wk =   0.0020000
        k(  548) = (   0.1414214  -0.8485281   0.4242641), wk =   0.0020000
        k(  549) = (   0.0707107  -0.7778175   0.4949747), wk =   0.0020000
        k(  550) = (  -0.0000000  -0.7071068   0.5656854), wk =   0.0020000
        k(  551) = (  -0.7071068   0.0000000   0.0000000), wk =   0.0020000
        k(  552) = (  -0.7778175   0.0707107   0.0707107), wk =   0.0020000
        k(  553) = (  -0.8485281   0.1414214   0.1414214), wk =   0.0020000
        k(  554) = (  -0.9192388   0.2121320   0.2121320), wk =   0.0020000
        k(  555) = (  -0.9899495   0.2828427   0.2828427), wk =   0.0020000
        k(  556) = (  -0.3535534  -0.3535534  -0.3535534), wk =   0.0020000
        k(  557) = (  -0.4242641  -0.2828427  -0.2828427), wk =   0.0020000
        k(  558) = (  -0.4949747  -0.2121320  -0.2121320), wk =   0.0020000
        k(  559) = (  -0.5656854  -0.1414214  -0.1414214), wk =   0.0020000
        k(  560) = (  -0.6363961  -0.0707107  -0.0707107), wk =   0.0020000
        k(  561) = (  -0.6363961  -0.0707107   0.0707107), wk =   0.0020000
        k(  562) = (  -0.7071068   0.0000000   0.1414214), wk =   0.0020000
        k(  563) = (  -0.7778175   0.0707107   0.2121320), wk =   0.0020000
        k(  564) = (  -0.8485281   0.1414214   0.2828427), wk =   0.0020000
        k(  565) = (  -0.9192388   0.2121320   0.3535534), wk =   0.0020000
        k(  566) = (  -0.2828427  -0.4242641  -0.2828427), wk =   0.0020000
        k(  567) = (  -0.3535534  -0.3535534  -0.2121320), wk =   0.0020000
        k(  568) = (  -0.4242641  -0.2828427  -0.1414214), wk =   0.0020000
        k(  569) = (  -0.4949747  -0.2121320  -0.0707107), wk =   0.0020000
        k(  570) = (  -0.5656854  -0.1414214   0.0000000), wk =   0.0020000
        k(  571) = (  -0.5656854  -0.1414214   0.1414214), wk =   0.0020000
        k(  572) = (  -0.6363961  -0.0707107   0.2121320), wk =   0.0020000
        k(  573) = (  -0.7071068   0.0000000   0.2828427), wk =   0.0020000
        k(  574) = (  -0.7778175   0.0707107   0.3535534), wk =   0.0020000
        k(  575) = (  -0.8485281   0.1414214   0.4242641), wk =   0.0020000
        k(  576) = (  -0.2121320  -0.4949747  -0.2121320), wk =   0.0020000
        k(  577) = (  -0.2828427  -0.4242641  -0.1414214), wk =   0.0020000
        k(  578) = (  -0.3535534  -0.3535534  -0.0707107), wk =   0.0020000
        k(  579) = (  -0.4242641  -0.2828427   0.0000000), wk =   0.0020000
        k(  580) = (  -0.4949747  -0.2121320   0.0707107), wk =   0.0020000
        k(  581) = (  -0.4949747  -0.2121320   0.2121320), wk =   0.0020000
        k(  582) = (  -0.5656854  -0.1414214   0.2828427), wk =   0.0020000
        k(  583) = (  -0.6363961  -0.0707107   0.3535534), wk =   0.0020000
        k(  584) = (  -0.7071068  -0.0000000   0.4242641), wk =   0.0020000
        k(  585) = (  -0.7778175   0.0707107   0.4949747), wk =   0.0020000
        k(  586) = (  -0.1414214  -0.5656854  -0.1414214), wk =   0.0020000
        k(  587) = (  -0.2121320  -0.4949747  -0.0707107), wk =   0.0020000
        k(  588) = (  -0.2828427  -0.4242641   0.0000000), wk =   0.0020000
        k(  589) = (  -0.3535534  -0.3535534   0.0707107), wk =   0.0020000
        k(  590) = (  -0.4242641  -0.2828427   0.1414214), wk =   0.0020000
        k(  591) = (  -0.4242641  -0.2828427   0.2828427), wk =   0.0020000
        k(  592) = (  -0.4949747  -0.2121320   0.3535534), wk =   0.0020000
        k(  593) = (  -0.5656854  -0.1414214   0.4242641), wk =   0.0020000
        k(  594) = (  -0.6363961  -0.0707107   0.4949747), wk =   0.0020000
        k(  595) = (  -0.7071068   0.0000000   0.5656854), wk =   0.0020000
        k(  596) = (  -0.0707107  -0.6363961  -0.0707107), wk =   0.0020000
        k(  597) = (  -0.1414214  -0.5656854   0.0000000), wk =   0.0020000
        k(  598) = (  -0.2121320  -0.4949747   0.0707107), wk =   0.0020000
        k(  599) = (  -0.2828427  -0.4242641   0.1414214), wk =   0.0020000
        k(  600) = (  -0.3535534  -0.3535534   0.2121320), wk =   0.0020000
        k(  601) = (  -0.2828427  -0.2828427   0.2828427), wk =   0.0020000
        k(  602) = (  -0.3535534  -0.2121320   0.3535534), wk =   0.0020000
        k(  603) = (  -0.4242641  -0.1414214   0.4242641), wk =   0.0020000
        k(  604) = (  -0.4949747  -0.0707107   0.4949747), wk =   0.0020000
        k(  605) = (  -0.5656854   0.0000000   0.5656854), wk =   0.0020000
        k(  606) = (   0.0707107  -0.6363961  -0.0707107), wk =   0.0020000
        k(  607) = (   0.0000000  -0.5656854   0.0000000), wk =   0.0020000
        k(  608) = (  -0.0707107  -0.4949747   0.0707107), wk =   0.0020000
        k(  609) = (  -0.1414214  -0.4242641   0.1414214), wk =   0.0020000
        k(  610) = (  -0.2121320  -0.3535534   0.2121320), wk =   0.0020000
        k(  611) = (  -0.2121320  -0.3535534   0.3535534), wk =   0.0020000
        k(  612) = (  -0.2828427  -0.2828427   0.4242641), wk =   0.0020000
        k(  613) = (  -0.3535534  -0.2121320   0.4949747), wk =   0.0020000
        k(  614) = (  -0.4242641  -0.1414214   0.5656854), wk =   0.0020000
        k(  615) = (  -0.4949747  -0.0707107   0.6363961), wk =   0.0020000
        k(  616) = (   0.1414214  -0.7071068   0.0000000), wk =   0.0020000
        k(  617) = (   0.0707107  -0.6363961   0.0707107), wk =   0.0020000
        k(  618) = (   0.0000000  -0.5656854   0.1414214), wk =   0.0020000
        k(  619) = (  -0.0707107  -0.4949747   0.2121320), wk =   0.0020000
        k(  620) = (  -0.1414214  -0.4242641   0.2828427), wk =   0.0020000
        k(  621) = (  -0.1414214  -0.4242641   0.4242641), wk =   0.0020000
        k(  622) = (  -0.2121320  -0.3535534   0.4949747), wk =   0.0020000
        k(  623) = (  -0.2828427  -0.2828427   0.5656854), wk =   0.0020000
        k(  624) = (  -0.3535534  -0.2121320   0.6363961), wk =   0.0020000
        k(  625) = (  -0.4242641  -0.1414214   0.7071068), wk =   0.0020000
        k(  626) = (   0.2121320  -0.7778175   0.0707107), wk =   0.0020000
        k(  627) = (   0.1414214  -0.7071068   0.1414214), wk =   0.0020000
        k(  628) = (   0.0707107  -0.6363961   0.2121320), wk =   0.0020000
        k(  629) = (  -0.0000000  -0.5656854   0.2828427), wk =   0.0020000
        k(  630) = (  -0.0707107  -0.4949747   0.3535534), wk =   0.0020000
        k(  631) = (  -0.0707107  -0.4949747   0.4949747), wk =   0.0020000
        k(  632) = (  -0.1414214  -0.4242641   0.5656854), wk =   0.0020000
        k(  633) = (  -0.2121320  -0.3535534   0.6363961), wk =   0.0020000
        k(  634) = (  -0.2828427  -0.2828427   0.7071068), wk =   0.0020000
        k(  635) = (  -0.3535534  -0.2121320   0.7778175), wk =   0.0020000
        k(  636) = (   0.2828427  -0.8485281   0.1414214), wk =   0.0020000
        k(  637) = (   0.2121320  -0.7778175   0.2121320), wk =   0.0020000
        k(  638) = (   0.1414214  -0.7071068   0.2828427), wk =   0.0020000
        k(  639) = (   0.0707107  -0.6363961   0.3535534), wk =   0.0020000
        k(  640) = (  -0.0000000  -0.5656854   0.4242641), wk =   0.0020000
        k(  641) = (   0.0000000  -0.5656854   0.5656854), wk =   0.0020000
        k(  642) = (  -0.0707107  -0.4949747   0.6363961), wk =   0.0020000
        k(  643) = (  -0.1414214  -0.4242641   0.7071068), wk =   0.0020000
        k(  644) = (  -0.2121320  -0.3535534   0.7778175), wk =   0.0020000
        k(  645) = (  -0.2828427  -0.2828427   0.8485281), wk =   0.0020000
        k(  646) = (   0.3535534  -0.9192388   0.2121320), wk =   0.0020000
        k(  647) = (   0.2828427  -0.8485281   0.2828427), wk =   0.0020000
        k(  648) = (   0.2121320  -0.7778175   0.3535534), wk =   0.0020000
        k(  649) = (   0.1414214  -0.7071068   0.4242641), wk =   0.0020000
        k(  650) = (   0.0707107  -0.6363961   0.4949747), wk =   0.0020000
        k(  651) = (  -0.6363961   0.0707107  -0.0707107), wk =   0.0020000
        k(  652) = (  -0.7071068   0.1414214   0.0000000), wk =   0.0020000
        k(  653) = (  -0.7778175   0.2121320   0.0707107), wk =   0.0020000
        k(  654) = (  -0.8485281   0.2828427   0.1414214), wk =   0.0020000
        k(  655) = (  -0.9192388   0.3535534   0.2121320), wk =   0.0020000
        k(  656) = (  -0.2828427  -0.2828427  -0.4242641), wk =   0.0020000
        k(  657) = (  -0.3535534  -0.2121320  -0.3535534), wk =   0.0020000
        k(  658) = (  -0.4242641  -0.1414214  -0.2828427), wk =   0.0020000
        k(  659) = (  -0.4949747  -0.0707107  -0.2121320), wk =   0.0020000
        k(  660) = (  -0.5656854   0.0000000  -0.1414214), wk =   0.0020000
        k(  661) = (  -0.5656854   0.0000000   0.0000000), wk =   0.0020000
        k(  662) = (  -0.6363961   0.0707107   0.0707107), wk =   0.0020000
        k(  663) = (  -0.7071068   0.1414214   0.1414214), wk =   0.0020000
        k(  664) = (  -0.7778175   0.2121320   0.2121320), wk =   0.0020000
        k(  665) = (  -0.8485281   0.2828427   0.2828427), wk =   0.0020000
        k(  666) = (  -0.2121320  -0.3535534  -0.3535534), wk =   0.0020000
        k(  667) = (  -0.2828427  -0.2828427  -0.2828427), wk =   0.0020000
        k(  668) = (  -0.3535534  -0.2121320  -0.2121320), wk =   0.0020000
        k(  669) = (  -0.4242641  -0.1414214  -0.1414214), wk =   0.0020000
        k(  670) = (  -0.4949747  -0.0707107  -0.0707107), wk =   0.0020000
        k(  671) = (  -0.4949747  -0.0707107   0.0707107), wk =   0.0020000
        k(  672) = (  -0.5656854   0.0000000   0.1414214), wk =   0.0020000
        k(  673) = (  -0.6363961   0.0707107   0.2121320), wk =   0.0020000
        k(  674) = (  -0.7071068   0.1414214   0.2828427), wk =   0.0020000
        k(  675) = (  -0.7778175   0.2121320   0.3535534), wk =   0.0020000
        k(  676) = (  -0.1414214  -0.4242641  -0.2828427), wk =   0.0020000
        k(  677) = (  -0.2121320  -0.3535534  -0.2121320), wk =   0.0020000
        k(  678) = (  -0.2828427  -0.2828427  -0.1414214), wk =   0.0020000
        k(  679) = (  -0.3535534  -0.2121320  -0.0707107), wk =   0.0020000
        k(  680) = (  -0.4242641  -0.1414214  -0.0000000), wk =   0.0020000
        k(  681) = (  -0.4242641  -0.1414214   0.1414214), wk =   0.0020000
        k(  682) = (  -0.4949747  -0.0707107   0.2121320), wk =   0.0020000
        k(  683) = (  -0.5656854  -0.0000000   0.2828427), wk =   0.0020000
        k(  684) = (  -0.6363961   0.0707107   0.3535534), wk =   0.0020000
        k(  685) = (  -0.7071068   0.1414214   0.4242641), wk =   0.0020000
        k(  686) = (  -0.0707107  -0.4949747  -0.2121320), wk =   0.0020000
        k(  687) = (  -0.1414214  -0.4242641  -0.1414214), wk =   0.0020000
        k(  688) = (  -0.2121320  -0.3535534  -0.0707107), wk =   0.0020000
        k(  689) = (  -0.2828427  -0.2828427   0.0000000), wk =   0.0020000
        k(  690) = (  -0.3535534  -0.2121320   0.0707107), wk =   0.0020000
        k(  691) = (  -0.3535534  -0.2121320   0.2121320), wk =   0.0020000
        k(  692) = (  -0.4242641  -0.1414214   0.2828427), wk =   0.0020000
        k(  693) = (  -0.4949747  -0.0707107   0.3535534), wk =   0.0020000
        k(  694) = (  -0.5656854   0.0000000   0.4242641), wk =   0.0020000
        k(  695) = (  -0.6363961   0.0707107   0.4949747), wk =   0.0020000
        k(  696) = (   0.0000000  -0.5656854  -0.1414214), wk =   0.0020000
        k(  697) = (  -0.0707107  -0.4949747  -0.0707107), wk =   0.0020000
        k(  698) = (  -0.1414214  -0.4242641  -0.0000000), wk =   0.0020000
        k(  699) = (  -0.2121320  -0.3535534   0.0707107), wk =   0.0020000
        k(  700) = (  -0.2828427  -0.2828427   0.1414214), wk =   0.0020000
        k(  701) = (  -0.2121320  -0.2121320   0.2121320), wk =   0.0020000
        k(  702) = (  -0.2828427  -0.1414214   0.2828427), wk =   0.0020000
        k(  703) = (  -0.3535534  -0.0707107   0.3535534), wk =   0.0020000
        k(  704) = (  -0.4242641  -0.0000000   0.4242641), wk =   0.0020000
        k(  705) = (  -0.4949747   0.0707107   0.4949747), wk =   0.0020000
        k(  706) = (   0.1414214  -0.5656854  -0.1414214), wk =   0.0020000
        k(  707) = (   0.0707107  -0.4949747  -0.0707107), wk =   0.0020000
        k(  708) = (   0.0000000  -0.4242641   0.0000000), wk =   0.0020000
        k(  709) = (  -0.0707107  -0.3535534   0.0707107), wk =   0.0020000
        k(  710) = (  -0.1414214  -0.2828427   0.1414214), wk =   0.0020000
        k(  711) = (  -0.1414214  -0.2828427   0.2828427), wk =   0.0020000
        k(  712) = (  -0.2121320  -0.2121320   0.3535534), wk =   0.0020000
        k(  713) = (  -0.2828427  -0.1414214   0.4242641), wk =   0.0020000
        k(  714) = (  -0.3535534  -0.0707107   0.4949747), wk =   0.0020000
        k(  715) = (  -0.4242641   0.0000000   0.5656854), wk =   0.0020000
        k(  716) = (   0.2121320  -0.6363961  -0.0707107), wk =   0.0020000
        k(  717) = (   0.1414214  -0.5656854   0.0000000), wk =   0.0020000
        k(  718) = (   0.0707107  -0.4949747   0.0707107), wk =   0.0020000
        k(  719) = (  -0.0000000  -0.4242641   0.1414214), wk =   0.0020000
        k(  720) = (  -0.0707107  -0.3535534   0.2121320), wk =   0.0020000
        k(  721) = (  -0.0707107  -0.3535534   0.3535534), wk =   0.0020000
        k(  722) = (  -0.1414214  -0.2828427   0.4242641), wk =   0.0020000
        k(  723) = (  -0.2121320  -0.2121320   0.4949747), wk =   0.0020000
        k(  724) = (  -0.2828427  -0.1414214   0.5656854), wk =   0.0020000
        k(  725) = (  -0.3535534  -0.0707107   0.6363961), wk =   0.0020000
        k(  726) = (   0.2828427  -0.7071068   0.0000000), wk =   0.0020000
        k(  727) = (   0.2121320  -0.6363961   0.0707107), wk =   0.0020000
        k(  728) = (   0.1414214  -0.5656854   0.1414214), wk =   0.0020000
        k(  729) = (   0.0707107  -0.4949747   0.2121320), wk =   0.0020000
        k(  730) = (  -0.0000000  -0.4242641   0.2828427), wk =   0.0020000
        k(  731) = (  -0.0000000  -0.4242641   0.4242641), wk =   0.0020000
        k(  732) = (  -0.0707107  -0.3535534   0.4949747), wk =   0.0020000
        k(  733) = (  -0.1414214  -0.2828427   0.5656854), wk =   0.0020000
        k(  734) = (  -0.2121320  -0.2121320   0.6363961), wk =   0.0020000
        k(  735) = (  -0.2828427  -0.1414214   0.7071068), wk =   0.0020000
        k(  736) = (   0.3535534  -0.7778175   0.0707107), wk =   0.0020000
        k(  737) = (   0.2828427  -0.7071068   0.1414214), wk =   0.0020000
        k(  738) = (   0.2121320  -0.6363961   0.2121320), wk =   0.0020000
        k(  739) = (   0.1414214  -0.5656854   0.2828427), wk =   0.0020000
        k(  740) = (   0.0707107  -0.4949747   0.3535534), wk =   0.0020000
        k(  741) = (   0.0707107  -0.4949747   0.4949747), wk =   0.0020000
        k(  742) = (  -0.0000000  -0.4242641   0.5656854), wk =   0.0020000
        k(  743) = (  -0.0707107  -0.3535534   0.6363961), wk =   0.0020000
        k(  744) = (  -0.1414214  -0.2828427   0.7071068), wk =   0.0020000
        k(  745) = (  -0.2121320  -0.2121320   0.7778175), wk =   0.0020000
        k(  746) = (   0.4242641  -0.8485281   0.1414214), wk =   0.0020000
        k(  747) = (   0.3535534  -0.7778175   0.2121320), wk =   0.0020000
        k(  748) = (   0.2828427  -0.7071068   0.2828427), wk =   0.0020000
        k(  749) = (   0.2121320  -0.6363961   0.3535534), wk =   0.0020000
        k(  750) = (   0.1414214  -0.5656854   0.4242641), wk =   0.0020000
        k(  751) = (  -0.5656854   0.1414214  -0.1414214), wk =   0.0020000
        k(  752) = (  -0.6363961   0.2121320  -0.0707107), wk =   0.0020000
        k(  753) = (  -0.7071068   0.2828427   0.0000000), wk =   0.0020000
        k(  754) = (  -0.7778175   0.3535534   0.0707107), wk =   0.0020000
        k(  755) = (  -0.8485281   0.4242641   0.1414214), wk =   0.0020000
        k(  756) = (  -0.2121320  -0.2121320  -0.4949747), wk =   0.0020000
        k(  757) = (  -0.2828427  -0.1414214  -0.4242641), wk =   0.0020000
        k(  758) = (  -0.3535534  -0.0707107  -0.3535534), wk =   0.0020000
        k(  759) = (  -0.4242641   0.0000000  -0.2828427), wk =   0.0020000
        k(  760) = (  -0.4949747   0.0707107  -0.2121320), wk =   0.0020000
        k(  761) = (  -0.4949747   0.0707107  -0.0707107), wk =   0.0020000
        k(  762) = (  -0.5656854   0.1414214   0.0000000), wk =   0.0020000
        k(  763) = (  -0.6363961   0.2121320   0.0707107), wk =   0.0020000
        k(  764) = (  -0.7071068   0.2828427   0.1414214), wk =   0.0020000
        k(  765) = (  -0.7778175   0.3535534   0.2121320), wk =   0.0020000
        k(  766) = (  -0.1414214  -0.2828427  -0.4242641), wk =   0.0020000
        k(  767) = (  -0.2121320  -0.2121320  -0.3535534), wk =   0.0020000
        k(  768) = (  -0.2828427  -0.1414214  -0.2828427), wk =   0.0020000
        k(  769) = (  -0.3535534  -0.0707107  -0.2121320), wk =   0.0020000
        k(  770) = (  -0.4242641  -0.0000000  -0.1414214), wk =   0.0020000
        k(  771) = (  -0.4242641   0.0000000   0.0000000), wk =   0.0020000
        k(  772) = (  -0.4949747   0.0707107   0.0707107), wk =   0.0020000
        k(  773) = (  -0.5656854   0.1414214   0.1414214), wk =   0.0020000
        k(  774) = (  -0.6363961   0.2121320   0.2121320), wk =   0.0020000
        k(  775) = (  -0.7071068   0.2828427   0.2828427), wk =   0.0020000
        k(  776) = (  -0.0707107  -0.3535534  -0.3535534), wk =   0.0020000
        k(  777) = (  -0.1414214  -0.2828427  -0.2828427), wk =   0.0020000
        k(  778) = (  -0.2121320  -0.2121320  -0.2121320), wk =   0.0020000
        k(  779) = (  -0.2828427  -0.1414214  -0.1414214), wk =   0.0020000
        k(  780) = (  -0.3535534  -0.0707107  -0.0707107), wk =   0.0020000
        k(  781) = (  -0.3535534  -0.0707107   0.0707107), wk =   0.0020000
        k(  782) = (  -0.4242641  -0.0000000   0.1414214), wk =   0.0020000
        k(  783) = (  -0.4949747   0.0707107   0.2121320), wk =   0.0020000
        k(  784) = (  -0.5656854   0.1414214   0.2828427), wk =   0.0020000
        k(  785) = (  -0.6363961   0.2121320   0.3535534), wk =   0.0020000
        k(  786) = (   0.0000000  -0.4242641  -0.2828427), wk =   0.0020000
        k(  787) = (  -0.0707107  -0.3535534  -0.2121320), wk =   0.0020000
        k(  788) = (  -0.1414214  -0.2828427  -0.1414214), wk =   0.0020000
        k(  789) = (  -0.2121320  -0.2121320  -0.0707107), wk =   0.0020000
        k(  790) = (  -0.2828427  -0.1414214   0.0000000), wk =   0.0020000
        k(  791) = (  -0.2828427  -0.1414214   0.1414214), wk =   0.0020000
        k(  792) = (  -0.3535534  -0.0707107   0.2121320), wk =   0.0020000
        k(  793) = (  -0.4242641  -0.0000000   0.2828427), wk =   0.0020000
        k(  794) = (  -0.4949747   0.0707107   0.3535534), wk =   0.0020000
        k(  795) = (  -0.5656854   0.1414214   0.4242641), wk =   0.0020000
        k(  796) = (   0.0707107  -0.4949747  -0.2121320), wk =   0.0020000
        k(  797) = (   0.0000000  -0.4242641  -0.1414214), wk =   0.0020000
        k(  798) = (  -0.0707107  -0.3535534  -0.0707107), wk =   0.0020000
        k(  799) = (  -0.1414214  -0.2828427   0.0000000), wk =   0.0020000
        k(  800) = (  -0.2121320  -0.2121320   0.0707107), wk =   0.0020000
        k(  801) = (  -0.1414214  -0.1414214   0.1414214), wk =   0.0020000
        k(  802) = (  -0.2121320  -0.0707107   0.2121320), wk =   0.0020000
        k(  803) = (  -0.2828427   0.0000000   0.2828427), wk =   0.0020000
        k(  804) = (  -0.3535534   0.0707107   0.3535534), wk =   0.0020000
        k(  805) = (  -0.4242641   0.1414214   0.4242641), wk =   0.0020000
        k(  806) = (   0.2121320  -0.4949747  -0.2121320), wk =   0.0020000
        k(  807) = (   0.1414214  -0.4242641  -0.1414214), wk =   0.0020000
        k(  808) = (   0.0707107  -0.3535534  -0.0707107), wk =   0.0020000
        k(  809) = (   0.0000000  -0.2828427   0.0000000), wk =   0.0020000
        k(  810) = (  -0.0707107  -0.2121320   0.0707107), wk =   0.0020000
        k(  811) = (  -0.0707107  -0.2121320   0.2121320), wk =   0.0020000
        k(  812) = (  -0.1414214  -0.1414214   0.2828427), wk =   0.0020000
        k(  813) = (  -0.2121320  -0.0707107   0.3535534), wk =   0.0020000
        k(  814) = (  -0.2828427   0.0000000   0.4242641), wk =   0.0020000
        k(  815) = (  -0.3535534   0.0707107   0.4949747), wk =   0.0020000
        k(  816) = (   0.2828427  -0.5656854  -0.1414214), wk =   0.0020000
        k(  817) = (   0.2121320  -0.4949747  -0.0707107), wk =   0.0020000
        k(  818) = (   0.1414214  -0.4242641  -0.0000000), wk =   0.0020000
        k(  819) = (   0.0707107  -0.3535534   0.0707107), wk =   0.0020000
        k(  820) = (   0.0000000  -0.2828427   0.1414214), wk =   0.0020000
        k(  821) = (   0.0000000  -0.2828427   0.2828427), wk =   0.0020000
        k(  822) = (  -0.0707107  -0.2121320   0.3535534), wk =   0.0020000
        k(  823) = (  -0.1414214  -0.1414214   0.4242641), wk =   0.0020000
        k(  824) = (  -0.2121320  -0.0707107   0.4949747), wk =   0.0020000
        k(  825) = (  -0.2828427   0.0000000   0.5656854), wk =   0.0020000
        k(  826) = (   0.3535534  -0.6363961  -0.0707107), wk =   0.0020000
        k(  827) = (   0.2828427  -0.5656854   0.0000000), wk =   0.0020000
        k(  828) = (   0.2121320  -0.4949747   0.0707107), wk =   0.0020000
        k(  829) = (   0.1414214  -0.4242641   0.1414214), wk =   0.0020000
        k(  830) = (   0.0707107  -0.3535534   0.2121320), wk =   0.0020000
        k(  831) = (   0.0707107  -0.3535534   0.3535534), wk =   0.0020000
        k(  832) = (   0.0000000  -0.2828427   0.4242641), wk =   0.0020000
        k(  833) = (  -0.0707107  -0.2121320   0.4949747), wk =   0.0020000
        k(  834) = (  -0.1414214  -0.1414214   0.5656854), wk =   0.0020000
        k(  835) = (  -0.2121320  -0.0707107   0.6363961), wk =   0.0020000
        k(  836) = (   0.4242641  -0.7071068   0.0000000), wk =   0.0020000
        k(  837) = (   0.3535534  -0.6363961   0.0707107), wk =   0.0020000
        k(  838) = (   0.2828427  -0.5656854   0.1414214), wk =   0.0020000
        k(  839) = (   0.2121320  -0.4949747   0.2121320), wk =   0.0020000
        k(  840) = (   0.1414214  -0.4242641   0.2828427), wk =   0.0020000
        k(  841) = (   0.1414214  -0.4242641   0.4242641), wk =   0.0020000
        k(  842) = (   0.0707107  -0.3535534   0.4949747), wk =   0.0020000
        k(  843) = (   0.0000000  -0.2828427   0.5656854), wk =   0.0020000
        k(  844) = (  -0.0707107  -0.2121320   0.6363961), wk =   0.0020000
        k(  845) = (  -0.1414214  -0.1414214   0.7071068), wk =   0.0020000
        k(  846) = (   0.4949747  -0.7778175   0.0707107), wk =   0.0020000
        k(  847) = (   0.4242641  -0.7071068   0.1414214), wk =   0.0020000
        k(  848) = (   0.3535534  -0.6363961   0.2121320), wk =   0.0020000
        k(  849) = (   0.2828427  -0.5656854   0.2828427), wk =   0.0020000
        k(  850) = (   0.2121320  -0.4949747   0.3535534), wk =   0.0020000
        k(  851) = (  -0.4949747   0.2121320  -0.2121320), wk =   0.0020000
        k(  852) = (  -0.5656854   0.2828427  -0.1414214), wk =   0.0020000
        k(  853) = (  -0.6363961   0.3535534  -0.0707107), wk =   0.0020000
        k(  854) = (  -0.7071068   0.4242641  -0.0000000), wk =   0.0020000
        k(  855) = (  -0.7778175   0.4949747   0.0707107), wk =   0.0020000
        k(  856) = (  -0.1414214  -0.1414214  -0.5656854), wk =   0.0020000
        k(  857) = (  -0.2121320  -0.0707107  -0.4949747), wk =   0.0020000
        k(  858) = (  -0.2828427   0.0000000  -0.4242641), wk =   0.0020000
        k(  859) = (  -0.3535534   0.0707107  -0.3535534), wk =   0.0020000
        k(  860) = (  -0.4242641   0.1414214  -0.2828427), wk =   0.0020000
        k(  861) = (  -0.4242641   0.1414214  -0.1414214), wk =   0.0020000
        k(  862) = (  -0.4949747   0.2121320  -0.0707107), wk =   0.0020000
        k(  863) = (  -0.5656854   0.2828427  -0.0000000), wk =   0.0020000
        k(  864) = (  -0.6363961   0.3535534   0.0707107), wk =   0.0020000
        k(  865) = (  -0.7071068   0.4242641   0.1414214), wk =   0.0020000
        k(  866) = (  -0.0707107  -0.2121320  -0.4949747), wk =   0.0020000
        k(  867) = (  -0.1414214  -0.1414214  -0.4242641), wk =   0.0020000
        k(  868) = (  -0.2121320  -0.0707107  -0.3535534), wk =   0.0020000
        k(  869) = (  -0.2828427   0.0000000  -0.2828427), wk =   0.0020000
        k(  870) = (  -0.3535534   0.0707107  -0.2121320), wk =   0.0020000
        k(  871) = (  -0.3535534   0.0707107  -0.0707107), wk =   0.0020000
        k(  872) = (  -0.4242641   0.1414214  -0.0000000), wk =   0.0020000
        k(  873) = (  -0.4949747   0.2121320   0.0707107), wk =   0.0020000
        k(  874) = (  -0.5656854   0.2828427   0.1414214), wk =   0.0020000
        k(  875) = (  -0.6363961   0.3535534   0.2121320), wk =   0.0020000
        k(  876) = (   0.0000000  -0.2828427  -0.4242641), wk =   0.0020000
        k(  877) = (  -0.0707107  -0.2121320  -0.3535534), wk =   0.0020000
        k(  878) = (  -0.1414214  -0.1414214  -0.2828427), wk =   0.0020000
        k(  879) = (  -0.2121320  -0.0707107  -0.2121320), wk =   0.0020000
        k(  880) = (  -0.2828427   0.0000000  -0.1414214), wk =   0.0020000
        k(  881) = (  -0.2828427   0.0000000   0.0000000), wk =   0.0020000
        k(  882) = (  -0.3535534   0.0707107   0.0707107), wk =   0.0020000
        k(  883) = (  -0.4242641   0.1414214   0.1414214), wk =   0.0020000
        k(  884) = (  -0.4949747   0.2121320   0.2121320), wk =   0.0020000
        k(  885) = (  -0.5656854   0.2828427   0.2828427), wk =   0.0020000
        k(  886) = (   0.0707107  -0.3535534  -0.3535534), wk =   0.0020000
        k(  887) = (   0.0000000  -0.2828427  -0.2828427), wk =   0.0020000
        k(  888) = (  -0.0707107  -0.2121320  -0.2121320), wk =   0.0020000
        k(  889) = (  -0.1414214  -0.1414214  -0.1414214), wk =   0.0020000
        k(  890) = (  -0.2121320  -0.0707107  -0.0707107), wk =   0.0020000
        k(  891) = (  -0.2121320  -0.0707107   0.0707107), wk =   0.0020000
        k(  892) = (  -0.2828427   0.0000000   0.1414214), wk =   0.0020000
        k(  893) = (  -0.3535534   0.0707107   0.2121320), wk =   0.0020000
        k(  894) = (  -0.4242641   0.1414214   0.2828427), wk =   0.0020000
        k(  895) = (  -0.4949747   0.2121320   0.3535534), wk =   0.0020000
        k(  896) = (   0.1414214  -0.4242641  -0.2828427), wk =   0.0020000
        k(  897) = (   0.0707107  -0.3535534  -0.2121320), wk =   0.0020000
        k(  898) = (   0.0000000  -0.2828427  -0.1414214), wk =   0.0020000
        k(  899) = (  -0.0707107  -0.2121320  -0.0707107), wk =   0.0020000
        k(  900) = (  -0.1414214  -0.1414214   0.0000000), wk =   0.0020000
        k(  901) = (  -0.0707107  -0.0707107   0.0707107), wk =   0.0020000
        k(  902) = (  -0.1414214   0.0000000   0.1414214), wk =   0.0020000
        k(  903) = (  -0.2121320   0.0707107   0.2121320), wk =   0.0020000
        k(  904) = (  -0.2828427   0.1414214   0.2828427), wk =   0.0020000
        k(  905) = (  -0.3535534   0.2121320   0.3535534), wk =   0.0020000
        k(  906) = (   0.2828427  -0.4242641  -0.2828427), wk =   0.0020000
        k(  907) = (   0.2121320  -0.3535534  -0.2121320), wk =   0.0020000
        k(  908) = (   0.1414214  -0.2828427  -0.1414214), wk =   0.0020000
        k(  909) = (   0.0707107  -0.2121320  -0.0707107), wk =   0.0020000
        k(  910) = (   0.0000000  -0.1414214   0.0000000), wk =   0.0020000
        k(  911) = (   0.0000000  -0.1414214   0.1414214), wk =   0.0020000
        k(  912) = (  -0.0707107  -0.0707107   0.2121320), wk =   0.0020000
        k(  913) = (  -0.1414214   0.0000000   0.2828427), wk =   0.0020000
        k(  914) = (  -0.2121320   0.0707107   0.3535534), wk =   0.0020000
        k(  915) = (  -0.2828427   0.1414214   0.4242641), wk =   0.0020000
        k(  916) = (   0.3535534  -0.4949747  -0.2121320), wk =   0.0020000
        k(  917) = (   0.2828427  -0.4242641  -0.1414214), wk =   0.0020000
        k(  918) = (   0.2121320  -0.3535534  -0.0707107), wk =   0.0020000
        k(  919) = (   0.1414214  -0.2828427   0.0000000), wk =   0.0020000
        k(  920) = (   0.0707107  -0.2121320   0.0707107), wk =   0.0020000
        k(  921) = (   0.0707107  -0.2121320   0.2121320), wk =   0.0020000
        k(  922) = (   0.0000000  -0.1414214   0.2828427), wk =   0.0020000
        k(  923) = (  -0.0707107  -0.0707107   0.3535534), wk =   0.0020000
        k(  924) = (  -0.1414214   0.0000000   0.4242641), wk =   0.0020000
        k(  925) = (  -0.2121320   0.0707107   0.4949747), wk =   0.0020000
        k(  926) = (   0.4242641  -0.5656854  -0.1414214), wk =   0.0020000
        k(  927) = (   0.3535534  -0.4949747  -0.0707107), wk =   0.0020000
        k(  928) = (   0.2828427  -0.4242641  -0.0000000), wk =   0.0020000
        k(  929) = (   0.2121320  -0.3535534   0.0707107), wk =   0.0020000
        k(  930) = (   0.1414214  -0.2828427   0.1414214), wk =   0.0020000
        k(  931) = (   0.1414214  -0.2828427   0.2828427), wk =   0.0020000
        k(  932) = (   0.0707107  -0.2121320   0.3535534), wk =   0.0020000
        k(  933) = (   0.0000000  -0.1414214   0.4242641), wk =   0.0020000
        k(  934) = (  -0.0707107  -0.0707107   0.4949747), wk =   0.0020000
        k(  935) = (  -0.1414214   0.0000000   0.5656854), wk =   0.0020000
        k(  936) = (   0.4949747  -0.6363961  -0.0707107), wk =   0.0020000
        k(  937) = (   0.4242641  -0.5656854   0.0000000), wk =   0.0020000
        k(  938) = (   0.3535534  -0.4949747   0.0707107), wk =   0.0020000
        k(  939) = (   0.2828427  -0.4242641   0.1414214), wk =   0.0020000
        k(  940) = (   0.2121320  -0.3535534   0.2121320), wk =   0.0020000
        k(  941) = (   0.2121320  -0.3535534   0.3535534), wk =   0.0020000
        k(  942) = (   0.1414214  -0.2828427   0.4242641), wk =   0.0020000
        k(  943) = (   0.0707107  -0.2121320   0.4949747), wk =   0.0020000
        k(  944) = (   0.0000000  -0.1414214   0.5656854), wk =   0.0020000
        k(  945) = (  -0.0707107  -0.0707107   0.6363961), wk =   0.0020000
        k(  946) = (   0.5656854  -0.7071068   0.0000000), wk =   0.0020000
        k(  947) = (   0.4949747  -0.6363961   0.0707107), wk =   0.0020000
        k(  948) = (   0.4242641  -0.5656854   0.1414214), wk =   0.0020000
        k(  949) = (   0.3535534  -0.4949747   0.2121320), wk =   0.0020000
        k(  950) = (   0.2828427  -0.4242641   0.2828427), wk =   0.0020000
        k(  951) = (  -0.4242641   0.2828427  -0.2828427), wk =   0.0020000
        k(  952) = (  -0.4949747   0.3535534  -0.2121320), wk =   0.0020000
        k(  953) = (  -0.5656854   0.4242641  -0.1414214), wk =   0.0020000
        k(  954) = (  -0.6363961   0.4949747  -0.0707107), wk =   0.0020000
        k(  955) = (  -0.7071068   0.5656854   0.0000000), wk =   0.0020000
        k(  956) = (  -0.0707107  -0.0707107  -0.6363961), wk =   0.0020000
        k(  957) = (  -0.1414214   0.0000000  -0.5656854), wk =   0.0020000
        k(  958) = (  -0.2121320   0.0707107  -0.4949747), wk =   0.0020000
        k(  959) = (  -0.2828427   0.1414214  -0.4242641), wk =   0.0020000
        k(  960) = (  -0.3535534   0.2121320  -0.3535534), wk =   0.0020000
        k(  961) = (  -0.3535534   0.2121320  -0.2121320), wk =   0.0020000
        k(  962) = (  -0.4242641   0.2828427  -0.1414214), wk =   0.0020000
        k(  963) = (  -0.4949747   0.3535534  -0.0707107), wk =   0.0020000
        k(  964) = (  -0.5656854   0.4242641   0.0000000), wk =   0.0020000
        k(  965) = (  -0.6363961   0.4949747   0.0707107), wk =   0.0020000
        k(  966) = (   0.0000000  -0.1414214  -0.5656854), wk =   0.0020000
        k(  967) = (  -0.0707107  -0.0707107  -0.4949747), wk =   0.0020000
        k(  968) = (  -0.1414214  -0.0000000  -0.4242641), wk =   0.0020000
        k(  969) = (  -0.2121320   0.0707107  -0.3535534), wk =   0.0020000
[...]
     8.1478   9.5188  10.9106  12.7659  13.1167  15.7205  17.6275  18.2931
    19.4287  21.0318  21.2892  22.3937  23.1510  24.5864  25.9748  28.4744
    29.3493  29.4795  31.5787  32.6412  33.3630  33.8014  34.8469  35.6554
    36.7414

     occupation numbers 
     1.0000   1.0000   1.0000   1.0000   1.0000   1.0000   1.0000   1.0000
     0.0000   0.0000   0.0000   0.0000   0.0000   0.0000   0.0000   0.0000
     0.0000   0.0000   0.0000   0.0000   0.0000   0.0000   0.0000   0.0000
     0.0000   0.0000   0.0000   0.0000   0.0000   0.0000   0.0000   0.0000
     0.0000

          k =-0.0707-0.0707-0.3536 (  1551 PWs)   bands (ev):

   -70.4219 -37.3876 -37.3866 -37.3866  -7.8406   1.0653   2.3993   2.4341
     8.1778   9.5984  10.9238  12.1440  12.7649  14.8054  17.2064  18.6908
    19.4885  20.2864  21.6303  21.8328  24.1994  24.6850  25.6903  27.4500
    30.1559  30.7488  31.3102  33.3876  33.9296  34.3718  35.7754  35.9576
    37.6677

     occupation numbers 
     1.0000   1.0000   1.0000   1.0000   1.0000   1.0000   1.0000   1.0000
     0.0000   0.0000   0.0000   0.0000   0.0000   0.0000   0.0000   0.0000
     0.0000   0.0000   0.0000   0.0000   0.0000   0.0000   0.0000   0.0000
     0.0000   0.0000   0.0000   0.0000   0.0000   0.0000   0.0000   0.0000
     0.0000

          k =-0.1414 0.0000-0.2828 (  1545 PWs)   bands (ev):

   -70.4220 -37.3873 -37.3866 -37.3864  -7.9456   1.2947   2.4058   2.7508
     8.2249   9.9863  10.8258  11.7444  12.2633  14.3769  16.8912  17.6977
    19.6374  20.1801  21.3929  23.3050  24.4482  24.8443  26.2219  26.5825
    29.3938  31.2757  32.1491  33.4993  34.4267  34.9918  36.1316  36.8266
    37.6234

     occupation numbers 
     1.0000   1.0000   1.0000   1.0000   1.0000   1.0000   1.0000   1.0000
     0.0000   0.0000   0.0000   0.0000   0.0000   0.0000   0.0000   0.0000
     0.0000   0.0000   0.0000   0.0000   0.0000   0.0000   0.0000   0.0000
     0.0000   0.0000   0.0000   0.0000   0.0000   0.0000   0.0000   0.0000
     0.0000

          k =-0.2121 0.0707-0.2121 (  1541 PWs)   bands (ev):

   -70.4220 -37.3874 -37.3865 -37.3863  -7.9648   1.2086   2.5115   2.8890
     8.0947  10.4226  10.9537  11.2226  12.4420  14.0692  15.9126  18.3009
    19.6829  20.6318  21.2896  23.3449  23.9657  24.6388  26.4480  27.5690
    29.6734  30.6271  32.3504  33.5554  34.0295  35.0002  35.6862  37.4396
    37.5812

     occupation numbers 
     1.0000   1.0000   1.0000   1.0000   1.0000   1.0000   1.0000   1.0000
     0.0000   0.0000   0.0000   0.0000   0.0000   0.0000   0.0000   0.0000
     0.0000   0.0000   0.0000   0.0000   0.0000   0.0000   0.0000   0.0000
     0.0000   0.0000   0.0000   0.0000   0.0000   0.0000   0.0000   0.0000
     0.0000

          k =-0.2121 0.0707-0.0707 (  1535 PWs)   bands (ev):

   -70.4220 -37.3869 -37.3863 -37.3863  -8.0912   1.7971   2.7436   2.7935
     7.6297  10.2262  11.2044  11.3898  12.2501  13.8733  16.2727  17.9832
    18.2969  18.9228  22.8112  23.6204  23.8009  25.7485  26.8926  26.9610
    30.0716  30.2212  31.2980  34.8200  34.9743  35.6945  36.0288  37.5292
    37.7632

     occupation numbers 
     1.0000   1.0000   1.0000   1.0000   1.0000   1.0000   1.0000   1.0000
     0.0000   0.0000   0.0000   0.0000   0.0000   0.0000   0.0000   0.0000
     0.0000   0.0000   0.0000   0.0000   0.0000   0.0000   0.0000   0.0000
     0.0000   0.0000   0.0000   0.0000   0.0000   0.0000   0.0000   0.0000
     0.0000

          k =-0.2828 0.1414 0.0000 (  1545 PWs)   bands (ev):

   -70.4220 -37.3873 -37.3866 -37.3864  -7.9456   1.2947   2.4058   2.7508
     8.2249   9.9863  10.8258  11.7444  12.2633  14.3769  16.8912  17.6977
    19.6374  20.1801  21.3929  23.3050  24.4482  24.8443  26.2219  26.5825
    29.3938  31.2757  32.1491  33.4993  34.4267  34.9918  36.1316  36.8266
    37.6234

     occupation numbers 
     1.0000   1.0000   1.0000   1.0000   1.0000   1.0000   1.0000   1.0000
     0.0000   0.0000   0.0000   0.0000   0.0000   0.0000   0.0000   0.0000
     0.0000   0.0000   0.0000   0.0000   0.0000   0.0000   0.0000   0.0000
     0.0000   0.0000   0.0000   0.0000   0.0000   0.0000   0.0000   0.0000
     0.0000

          k =-0.3536 0.2121 0.0707 (  1555 PWs)   bands (ev):

   -70.4219 -37.3879 -37.3868 -37.3865  -7.7517   0.6922   2.1265   2.6378
     8.6872   9.9388  10.5311  11.6855  12.9574  15.4774  16.6061  18.2233
    19.6933  20.8336  21.8422  22.7426  23.6538  25.2418  26.2868  27.3922
    29.1621  30.2016  31.9787  32.7871  33.4924  34.0423  35.2979  36.2744
    36.6257

     occupation numbers 
     1.0000   1.0000   1.0000   1.0000   1.0000   1.0000   1.0000   1.0000
     0.0000   0.0000   0.0000   0.0000   0.0000   0.0000   0.0000   0.0000
     0.0000   0.0000   0.0000   0.0000   0.0000   0.0000   0.0000   0.0000
     0.0000   0.0000   0.0000   0.0000   0.0000   0.0000   0.0000   0.0000
     0.0000

          k =-0.4243 0.2828 0.1414 (  1551 PWs)   bands (ev):

   -70.4219 -37.3884 -37.3870 -37.3866  -7.5812   0.2132   1.9777   2.5086
     8.8317   9.5421  11.2341  11.4666  14.0180  16.2170  16.6417  17.2752
    19.1498  21.3013  21.7497  23.9167  24.0387  25.9275  26.5402  27.7915
    28.9758  29.5826  30.4479  31.6190  33.0243  33.7390  34.3801  35.3778
    36.1658

     occupation numbers 
     1.0000   1.0000   1.0000   1.0000   1.0000   1.0000   1.0000   1.0000
     0.0000   0.0000   0.0000   0.0000   0.0000   0.0000   0.0000   0.0000
     0.0000   0.0000   0.0000   0.0000   0.0000   0.0000   0.0000   0.0000
     0.0000   0.0000   0.0000   0.0000   0.0000   0.0000   0.0000   0.0000
     0.0000

          k =-0.4950 0.3536 0.2121 (  1544 PWs)   bands (ev):

   -70.4219 -37.3886 -37.3870 -37.3867  -7.5122   0.0317   1.9339   2.4523
     8.8922   9.3286  11.3140  11.8096  14.6847  15.5698  16.9819  17.2928
    18.9485  20.0797  23.3046  23.6485  25.2296  26.0842  26.8767  27.4229
    28.5842  28.7565  30.6734  31.6611  32.4657  33.6413  34.1688  34.2924
    36.0346

     occupation numbers 
     1.0000   1.0000   1.0000   1.0000   1.0000   1.0000   1.0000   1.0000
     0.0000   0.0000   0.0000   0.0000   0.0000   0.0000   0.0000   0.0000
     0.0000   0.0000   0.0000   0.0000   0.0000   0.0000   0.0000   0.0000
     0.0000   0.0000   0.0000   0.0000   0.0000   0.0000   0.0000   0.0000
     0.0000

          k = 0.1414-0.2828-0.4243 (  1551 PWs)   bands (ev):

   -70.4219 -37.3884 -37.3870 -37.3866  -7.5812   0.2132   1.9777   2.5086
     8.8317   9.5421  11.2341  11.4666  14.0180  16.2170  16.6417  17.2752
    19.1498  21.3013  21.7497  23.9167  24.0387  25.9275  26.5402  27.7915
    28.9758  29.5826  30.4479  31.6190  33.0243  33.7390  34.3801  35.3778
    36.1658

     occupation numbers 
     1.0000   1.0000   1.0000   1.0000   1.0000   1.0000   1.0000   1.0000
     0.0000   0.0000   0.0000   0.0000   0.0000   0.0000   0.0000   0.0000
     0.0000   0.0000   0.0000   0.0000   0.0000   0.0000   0.0000   0.0000
     0.0000   0.0000   0.0000   0.0000   0.0000   0.0000   0.0000   0.0000
     0.0000

          k = 0.0707-0.2121-0.3536 (  1555 PWs)   bands (ev):

   -70.4219 -37.3879 -37.3868 -37.3865  -7.7517   0.6922   2.1265   2.6378
     8.6872   9.9388  10.5311  11.6855  12.9574  15.4774  16.6061  18.2233
    19.6933  20.8336  21.8422  22.7426  23.6538  25.2418  26.2868  27.3922
    29.1621  30.2016  31.9787  32.7871  33.4924  34.0423  35.2979  36.2744
    36.6257

     occupation numbers 
     1.0000   1.0000   1.0000   1.0000   1.0000   1.0000   1.0000   1.0000
     0.0000   0.0000   0.0000   0.0000   0.0000   0.0000   0.0000   0.0000
     0.0000   0.0000   0.0000   0.0000   0.0000   0.0000   0.0000   0.0000
     0.0000   0.0000   0.0000   0.0000   0.0000   0.0000   0.0000   0.0000
     0.0000

          k = 0.0000-0.1414-0.2828 (  1545 PWs)   bands (ev):

   -70.4220 -37.3873 -37.3866 -37.3864  -7.9456   1.2947   2.4058   2.7508
     8.2249   9.9863  10.8258  11.7444  12.2633  14.3769  16.8912  17.6977
    19.6374  20.1801  21.3929  23.3050  24.4482  24.8443  26.2219  26.5825
    29.3938  31.2757  32.1491  33.4993  34.4267  34.9918  36.1316  36.8266
    37.6234

     occupation numbers 
     1.0000   1.0000   1.0000   1.0000   1.0000   1.0000   1.0000   1.0000
     0.0000   0.0000   0.0000   0.0000   0.0000   0.0000   0.0000   0.0000
     0.0000   0.0000   0.0000   0.0000   0.0000   0.0000   0.0000   0.0000
     0.0000   0.0000   0.0000   0.0000   0.0000   0.0000   0.0000   0.0000
     0.0000

          k =-0.0707-0.0707-0.2121 (  1535 PWs)   bands (ev):

   -70.4220 -37.3869 -37.3863 -37.3863  -8.0912   1.7971   2.7436   2.7935
     7.6297  10.2262  11.2044  11.3898  12.2501  13.8733  16.2727  17.9832
    18.2969  18.9228  22.8112  23.6204  23.8009  25.7485  26.8926  26.9610
    30.0716  30.2212  31.2980  34.8200  34.9743  35.6945  36.0288  37.5292
    37.7632

     occupation numbers 
     1.0000   1.0000   1.0000   1.0000   1.0000   1.0000   1.0000   1.0000
     0.0000   0.0000   0.0000   0.0000   0.0000   0.0000   0.0000   0.0000
     0.0000   0.0000   0.0000   0.0000   0.0000   0.0000   0.0000   0.0000
     0.0000   0.0000   0.0000   0.0000   0.0000   0.0000   0.0000   0.0000
     0.0000

          k =-0.1414 0.0000-0.1414 (  1538 PWs)   bands (ev):

   -70.4220 -37.3867 -37.3863 -37.3862  -8.1445   2.0069   2.7320   2.9629
     7.3650  10.4880  11.1124  11.1660  12.6153  13.5325  16.3979  17.1174
    18.1756  18.8827  22.1395  23.6905  25.2229  25.9671  26.5001  27.8036
    29.5475  30.2743  31.0216  34.5738  35.2198  35.3949  36.2660  37.8723
    38.2754

     occupation numbers 
     1.0000   1.0000   1.0000   1.0000   1.0000   1.0000   1.0000   1.0000
     0.0000   0.0000   0.0000   0.0000   0.0000   0.0000   0.0000   0.0000
     0.0000   0.0000   0.0000   0.0000   0.0000   0.0000   0.0000   0.0000
     0.0000   0.0000   0.0000   0.0000   0.0000   0.0000   0.0000   0.0000
     0.0000

          k =-0.1414 0.0000 0.0000 (  1523 PWs)   bands (ev):

   -70.4220 -37.3864 -37.3862 -37.3862  -8.2175   2.5011   2.8693   2.8693
     6.9423  10.4768  11.1232  11.1232  12.6682  13.8785  16.9934  17.0712
    17.0712  17.5792  21.4276  25.4190  25.4190  26.7118  27.3410  27.3514
    29.8193  29.8193  30.0611  34.6954  34.6954  35.0256  37.7874  38.0210
    38.0210

     occupation numbers 
     1.0000   1.0000   1.0000   1.0000   1.0000   1.0000   1.0000   1.0000
     0.0000   0.0000   0.0000   0.0000   0.0000   0.0000   0.0000   0.0000
     0.0000   0.0000   0.0000   0.0000   0.0000   0.0000   0.0000   0.0000
     0.0000   0.0000   0.0000   0.0000   0.0000   0.0000   0.0000   0.0000
     0.0000

          k =-0.2121 0.0707 0.0707 (  1535 PWs)   bands (ev):

   -70.4220 -37.3869 -37.3863 -37.3863  -8.0912   1.7971   2.7436   2.7935
     7.6297  10.2262  11.2044  11.3898  12.2501  13.8733  16.2727  17.9832
    18.2969  18.9228  22.8112  23.6204  23.8009  25.7485  26.8926  26.9610
    30.0716  30.2212  31.2980  34.8200  34.9743  35.6945  36.0288  37.5292
    37.7632

     occupation numbers 
     1.0000   1.0000   1.0000   1.0000   1.0000   1.0000   1.0000   1.0000
     0.0000   0.0000   0.0000   0.0000   0.0000   0.0000   0.0000   0.0000
     0.0000   0.0000   0.0000   0.0000   0.0000   0.0000   0.0000   0.0000
     0.0000   0.0000   0.0000   0.0000   0.0000   0.0000   0.0000   0.0000
     0.0000

          k =-0.2828 0.1414 0.1414 (  1553 PWs)   bands (ev):

   -70.4220 -37.3877 -37.3865 -37.3864  -7.8931   0.9413   2.6309   2.6707
     8.1883  10.2937  10.7938  11.3530  12.9383  14.2825  15.6599  19.4056
    19.6327  20.8172  21.5995  21.7350  23.7170  25.4186  26.9184  27.0350
    30.1535  30.3359  31.8922  33.1120  34.3002  34.7229  35.1543  37.1727
    37.2846

     occupation numbers 
     1.0000   1.0000   1.0000   1.0000   1.0000   1.0000   1.0000   1.0000
     0.0000   0.0000   0.0000   0.0000   0.0000   0.0000   0.0000   0.0000
     0.0000   0.0000   0.0000   0.0000   0.0000   0.0000   0.0000   0.0000
     0.0000   0.0000   0.0000   0.0000   0.0000   0.0000   0.0000   0.0000
     0.0000

          k =-0.3536 0.2121 0.2121 (  1557 PWs)   bands (ev):

   -70.4219 -37.3884 -37.3866 -37.3866  -7.6904   0.2516   2.5177   2.5702
     8.3383  10.0831  11.0508  11.2328  13.9402  15.3510  15.6884  18.6701
    18.8427  21.1732  22.2014  22.4816  23.6651  26.7323  27.3262  27.6831
    29.4705  29.9523  30.0114  32.4446  33.2823  33.6432  34.8375  35.9896
    36.6667

     occupation numbers 
     1.0000   1.0000   1.0000   1.0000   1.0000   1.0000   1.0000   1.0000
     0.0000   0.0000   0.0000   0.0000   0.0000   0.0000   0.0000   0.0000
     0.0000   0.0000   0.0000   0.0000   0.0000   0.0000   0.0000   0.0000
     0.0000   0.0000   0.0000   0.0000   0.0000   0.0000   0.0000   0.0000
     0.0000

          k =-0.4243 0.2828 0.2828 (  1543 PWs)   bands (ev):

   -70.4219 -37.3888 -37.3867 -37.3866  -7.5709  -0.1006   2.3930   2.5790
     8.3560   9.8945  10.8082  11.7660  14.9448  16.0343  16.4032  17.4082
    17.6588  19.5319  24.0893  24.3231  25.0462  26.2699  27.5401  27.8048
    28.6828  28.7668  30.0122  32.1326  32.3109  33.1023  34.6645  34.9810
    36.1573

     occupation numbers 
     1.0000   1.0000   1.0000   1.0000   1.0000   1.0000   1.0000   1.0000
     0.0000   0.0000   0.0000   0.0000   0.0000   0.0000   0.0000   0.0000
     0.0000   0.0000   0.0000   0.0000   0.0000   0.0000   0.0000   0.0000
     0.0000   0.0000   0.0000   0.0000   0.0000   0.0000   0.0000   0.0000
     0.0000

          k = 0.2121-0.3536-0.3536 (  1541 PWs)   bands (ev):

   -70.4219 -37.3887 -37.3867 -37.3865  -7.5970  -0.0251   2.3391   2.6533
     8.3948   9.9797  10.7651  11.6844  14.6607  15.5459  16.5582  16.9978
    19.1911  19.3698  22.8847  24.5333  24.7269  26.8029  27.3358  27.8871
    28.8043  29.1212  29.8385  31.9795  32.1317  33.7889  34.8783  35.0627
    36.4495

     occupation numbers 
     1.0000   1.0000   1.0000   1.0000   1.0000   1.0000   1.0000   1.0000
     0.0000   0.0000   0.0000   0.0000   0.0000   0.0000   0.0000   0.0000
     0.0000   0.0000   0.0000   0.0000   0.0000   0.0000   0.0000   0.0000
     0.0000   0.0000   0.0000   0.0000   0.0000   0.0000   0.0000   0.0000
     0.0000

          k = 0.1414-0.2828-0.2828 (  1551 PWs)   bands (ev):

   -70.4219 -37.3881 -37.3867 -37.3864  -7.7544   0.4550   2.3776   2.7698
     8.3995  10.3072  10.9468  11.0966  13.2997  15.0974  15.6741  18.4656
    20.4638  21.0413  21.1050  22.7529  23.2271  26.6100  26.6188  27.8035
    29.4056  30.4486  30.8455  32.4331  33.1912  33.9925  35.6617  35.8610
    36.5462

     occupation numbers 
     1.0000   1.0000   1.0000   1.0000   1.0000   1.0000   1.0000   1.0000
     0.0000   0.0000   0.0000   0.0000   0.0000   0.0000   0.0000   0.0000
     0.0000   0.0000   0.0000   0.0000   0.0000   0.0000   0.0000   0.0000
     0.0000   0.0000   0.0000   0.0000   0.0000   0.0000   0.0000   0.0000
     0.0000

          k = 0.0707-0.2121-0.2121 (  1541 PWs)   bands (ev):

   -70.4220 -37.3874 -37.3865 -37.3863  -7.9648   1.2086   2.5115   2.8890
     8.0947  10.4226  10.9537  11.2226  12.4420  14.0692  15.9126  18.3009
    19.6829  20.6318  21.2896  23.3449  23.9657  24.6388  26.4480  27.5690
    29.6734  30.6271  32.3504  33.5554  34.0295  35.0002  35.6862  37.4396
    37.5812

     occupation numbers 
     1.0000   1.0000   1.0000   1.0000   1.0000   1.0000   1.0000   1.0000
     0.0000   0.0000   0.0000   0.0000   0.0000   0.0000   0.0000   0.0000
     0.0000   0.0000   0.0000   0.0000   0.0000   0.0000   0.0000   0.0000
     0.0000   0.0000   0.0000   0.0000   0.0000   0.0000   0.0000   0.0000
     0.0000

          k = 0.0000-0.1414-0.1414 (  1538 PWs)   bands (ev):

   -70.4220 -37.3867 -37.3863 -37.3862  -8.1445   2.0069   2.7320   2.9629
     7.3650  10.4880  11.1124  11.1660  12.6153  13.5325  16.3979  17.1174
    18.1756  18.8827  22.1395  23.6905  25.2229  25.9671  26.5001  27.8036
    29.5475  30.2743  31.0216  34.5738  35.2198  35.3949  36.2660  37.8723
    38.2754

     occupation numbers 
     1.0000   1.0000   1.0000   1.0000   1.0000   1.0000   1.0000   1.0000
     0.0000   0.0000   0.0000   0.0000   0.0000   0.0000   0.0000   0.0000
     0.0000   0.0000   0.0000   0.0000   0.0000   0.0000   0.0000   0.0000
     0.0000   0.0000   0.0000   0.0000   0.0000   0.0000   0.0000   0.0000
     0.0000

          k =-0.0707-0.0707-0.0707 (  1522 PWs)   bands (ev):

   -70.4220 -37.3864 -37.3861 -37.3861  -8.2370   2.5077   2.9559   2.9559
     6.7848  10.7096  10.9711  10.9711  13.3651  13.3651  16.1475  17.2548
    17.5052  17.5052  21.0499  25.7273  25.9656  25.9656  28.0706  28.0706
    29.4912  29.4912  29.8555  34.0773  34.8279  34.8279  37.4015  38.6387
    38.6387

     occupation numbers 
     1.0000   1.0000   1.0000   1.0000   1.0000   1.0000   1.0000   1.0000
     0.0000   0.0000   0.0000   0.0000   0.0000   0.0000   0.0000   0.0000
     0.0000   0.0000   0.0000   0.0000   0.0000   0.0000   0.0000   0.0000
     0.0000   0.0000   0.0000   0.0000   0.0000   0.0000   0.0000   0.0000
     0.0000

     the Fermi energy is     4.7525 ev

     Writing output data file /wrk/kfg/julia_data/MgS/znse.in_vnscf_vol_2/qe.nscf.save/
 
     init_run     :      0.18s CPU      0.22s WALL (       1 calls)
     electrons    :    243.05s CPU    251.92s WALL (       1 calls)

     Called by init_run:
     wfcinit      :      0.00s CPU      0.00s WALL (       1 calls)
     wfcinit:atom :      0.06s CPU      0.06s WALL (    1000 calls)
     wfcinit:wfcr :      8.65s CPU      9.17s WALL (    1000 calls)
     potinit      :      0.01s CPU      0.01s WALL (       1 calls)
     hinit0       :      0.15s CPU      0.16s WALL (       1 calls)

     Called by electrons:
     c_bands      :    243.03s CPU    251.82s WALL (       1 calls)
     v_of_rho     :      0.00s CPU      0.01s WALL (       1 calls)
     v_h          :      0.00s CPU      0.00s WALL (       1 calls)
     v_xc         :      0.00s CPU      0.01s WALL (       1 calls)
     newd         :      0.01s CPU      0.01s WALL (       1 calls)

     Called by c_bands:
     init_us_2    :      0.13s CPU      0.14s WALL (    1000 calls)
     cegterg      :    233.16s CPU    241.34s WALL (    1026 calls)

     Called by sum_band:

     Called by *egterg:
     h_psi        :     85.17s CPU     90.53s WALL (   20103 calls)
     s_psi        :      2.03s CPU      2.14s WALL (   20103 calls)
     g_psi        :      0.85s CPU      0.88s WALL (   18077 calls)
     cdiaghg      :    124.57s CPU    126.52s WALL (   19077 calls)
     cegterg:over :     13.58s CPU     14.31s WALL (   18077 calls)
     cegterg:upda :      7.36s CPU      7.62s WALL (   18077 calls)
     cegterg:last :      5.72s CPU      5.94s WALL (    4040 calls)
     cdiaghg:chol :      4.99s CPU      5.12s WALL (   19077 calls)
     cdiaghg:inve :      1.35s CPU      1.39s WALL (   19077 calls)
     cdiaghg:para :     14.80s CPU     15.78s WALL (   38154 calls)

     Called by h_psi:
     h_psi:calbec :      3.18s CPU      3.38s WALL (   20103 calls)
     vloc_psi     :     79.63s CPU     84.66s WALL (   20103 calls)
     add_vuspsi   :      2.07s CPU      2.20s WALL (   20103 calls)

     General routines
     calbec       :      3.11s CPU      3.32s WALL (   20103 calls)
     fft          :      0.00s CPU      0.00s WALL (      13 calls)
     ffts         :      0.00s CPU      0.00s WALL (       1 calls)
     fftw         :     72.38s CPU     77.06s WALL (  879284 calls)
     interpolate  :      0.00s CPU      0.00s WALL (       1 calls)
 
     Parallel routines
     fft_scatt_xy :      8.91s CPU      9.39s WALL (  879298 calls)
     fft_scatt_yz :     26.03s CPU     27.94s WALL (  879298 calls)
 
     PWSCF        :   4m 5.47s CPU   4m18.70s WALL

 
   This run was terminated on:  21: 2:15  16Apr2020            

=------------------------------------------------------------------------------=
   JOB DONE.
=------------------------------------------------------------------------------=
