
     Program PWSCF v.6.5 starts on 16Apr2020 at 20: 5:13 

     This program is part of the open-source Quantum ESPRESSO suite
     for quantum simulation of materials; please cite
         "P. Giannozzi et al., J. Phys.:Condens. Matter 21 395502 (2009);
         "P. Giannozzi et al., J. Phys.:Condens. Matter 29 465901 (2017);
          URL http://www.quantum-espresso.org", 
     in publications or presentations arising from this work. More details at
     http://www.quantum-espresso.org/quote

     Parallel version (MPI), running on     8 processors

     MPI processes distributed on     1 nodes
     R & G space division:  proc/nbgrp/npool/nimage =       8
     Reading input from /wrk/kfg/julia_data/MgS/znse.in_vnscf_shear_2/qe.nscf.in
Warning: card &IONS ignored
Warning: card   ION_DYNAMICS='BFGS', ignored
Warning: card / ignored
Warning: card &CELL ignored
Warning: card  CELL_DYNAMICS = 'BFGS' ignored
Warning: card  CELL_DOFREE = 'ALL' ignored
Warning: card  CELL_FACTOR = 1.0 ignored
Warning: card / ignored
     Message from routine read_cards :
     DEPRECATED: no units specified in CELL_PARAMETERS card

     Current dimensions of program PWSCF are:
     Max number of different atomic species (ntypx) = 10
     Max number of k-points (npk) =  40000
     Max angular momentum in pseudopotentials (lmaxx) =  3
     Message from routine volume:
     axis vectors are left-handed

     Atomic positions and unit cell read from directory:
     /wrk/kfg/julia_data/MgS/znse.in_vnscf_shear_2/qe.nscf.save/                                                                                                                                                                                                     
     Message from routine volume:
     axis vectors are left-handed
 
               file mg.pbesol.UPF: wavefunction(s)  3P renormalized

     Subspace diagonalization in iterative solution of the eigenvalue problem:
     one sub-group per band group will be used
     scalapack distributed-memory algorithm (size of sub-group:  2*  2 procs)

 
     Parallelization info
     --------------------
     sticks:   dense  smooth     PW     G-vecs:    dense   smooth      PW
     Min         123      90     29                 2536     1545     280
     Max         125      91     30                 2537     1546     281
     Sum         991     723    235                20295    12361    2245
 


     bravais-lattice index     =            0
     lattice parameter (alat)  =       7.7023  a.u.
     unit-cell volume          =     304.3492 (a.u.)^3
     number of atoms/cell      =            2
     number of atomic types    =            2
     number of electrons       =        16.00
     number of Kohn-Sham states=           33
     kinetic-energy cutoff     =      45.0000  Ry
     charge density cutoff     =     250.0000  Ry
     Exchange-correlation= SLA  PW   PSX  PSC
                           (   1   4  10   8   0   0   0)
     A smooth kinetic-energy cutoff is imposed at      44.5000 Ry
     height of the smooth step-function =             800.0000 Ry
     width of the smooth step-function  =               1.0000 Ry


     celldm(1)=   7.702301  celldm(2)=   0.000000  celldm(3)=   0.000000
     celldm(4)=   0.000000  celldm(5)=   0.000000  celldm(6)=   0.000000

     crystal axes: (cart. coord. in units of alat)
               a(1) = (   0.707107   0.707107   0.000000 )  
               a(2) = (   0.693242   0.013865   0.693242 )  
               a(3) = (   0.013865   0.693242   0.693242 )  

     reciprocal axes: (cart. coord. in units 2 pi/alat)
               b(1) = (  0.707107  0.707107 -0.721249 )  
               b(2) = (  0.735968 -0.735968  0.721249 )  
               b(3) = ( -0.735968  0.735968  0.721249 )  


     PseudoPot. # 1 for Mg read from file:
     /home/kfg/psuedo/gbrv_1.5/mg.pbesol.UPF
     MD5 check sum: cbba17e5274afd115179030b10be074e
     Pseudo is Ultrasoft, Zval = 10.0
     Generated by new atomic code, or converted to UPF format
     Using radial grid of  821 points,  7 beta functions with: 
                l(1) =   0
                l(2) =   0
                l(3) =   0
                l(4) =   1
                l(5) =   1
                l(6) =   2
                l(7) =   2
     Q(r) pseudized with  8 coefficients,  rinner =    1.200   1.200   1.200
                                                       1.200   1.200

     PseudoPot. # 2 for S  read from file:
     /home/kfg/psuedo/gbrv_1.5/s.pbesol.UPF
     MD5 check sum: 0ccfa86ec6eb59065d10aaae963ef2a7
     Pseudo is Ultrasoft + core correction, Zval =  6.0
     Generated by new atomic code, or converted to UPF format
     Using radial grid of  907 points,  6 beta functions with: 
                l(1) =   0
                l(2) =   0
                l(3) =   1
                l(4) =   1
                l(5) =   2
                l(6) =   2
     Q(r) pseudized with  8 coefficients,  rinner =    1.300   1.300   1.300
                                                       1.300   1.300

     atomic species   valence    mass     pseudopotential
        Mg            10.00    24.31000     Mg( 1.00)
        S              6.00    32.06000     S ( 1.00)

     No symmetry found


                                    s                        frac. trans.

      isym =  1     identity                                     

 cryst.   s( 1) = (     1          0          0      )
                  (     0          1          0      )
                  (     0          0          1      )

 cart.    s( 1) = (  1.0000000 -0.0000000  0.0000000 )
                  ( -0.0000000  1.0000000  0.0000000 )
                  (  0.0000000  0.0000000  1.0000000 )


   Cartesian axes

     site n.     atom                  positions (alat units)
         1           Mg  tau(   1) = (   0.0000000   0.0000000   0.0000000  )
         2           S   tau(   2) = (   0.3535534   0.3535534   0.3466210  )

   Crystallographic axes

     site n.     atom                  positions (cryst. coord.)
         1           Mg  tau(   1) = (  0.0000000  0.0000000  0.0000000  )
         2           S   tau(   2) = (  0.2500000  0.2500000  0.2500000  )

     number of k points=  1000  Gaussian smearing, width (Ry)=  0.0100
                       cart. coord. in units 2pi/alat
        k(    1) = (   0.0000000   0.0000000   0.0000000), wk =   0.0020000
        k(    2) = (  -0.0735968   0.0735968   0.0721249), wk =   0.0020000
        k(    3) = (  -0.1471937   0.1471937   0.1442498), wk =   0.0020000
        k(    4) = (  -0.2207905   0.2207905   0.2163747), wk =   0.0020000
        k(    5) = (  -0.2943873   0.2943873   0.2884996), wk =   0.0020000
        k(    6) = (   0.3679841  -0.3679841  -0.3606245), wk =   0.0020000
        k(    7) = (   0.2943873  -0.2943873  -0.2884996), wk =   0.0020000
        k(    8) = (   0.2207905  -0.2207905  -0.2163747), wk =   0.0020000
        k(    9) = (   0.1471937  -0.1471937  -0.1442498), wk =   0.0020000
        k(   10) = (   0.0735968  -0.0735968  -0.0721249), wk =   0.0020000
        k(   11) = (   0.0735968  -0.0735968   0.0721249), wk =   0.0020000
        k(   12) = (   0.0000000   0.0000000   0.1442498), wk =   0.0020000
        k(   13) = (  -0.0735968   0.0735968   0.2163747), wk =   0.0020000
        k(   14) = (  -0.1471937   0.1471937   0.2884996), wk =   0.0020000
        k(   15) = (  -0.2207905   0.2207905   0.3606245), wk =   0.0020000
        k(   16) = (   0.4415810  -0.4415810  -0.2884996), wk =   0.0020000
        k(   17) = (   0.3679841  -0.3679841  -0.2163747), wk =   0.0020000
        k(   18) = (   0.2943873  -0.2943873  -0.1442498), wk =   0.0020000
        k(   19) = (   0.2207905  -0.2207905  -0.0721249), wk =   0.0020000
        k(   20) = (   0.1471937  -0.1471937   0.0000000), wk =   0.0020000
        k(   21) = (   0.1471937  -0.1471937   0.1442498), wk =   0.0020000
        k(   22) = (   0.0735968  -0.0735968   0.2163747), wk =   0.0020000
        k(   23) = (   0.0000000   0.0000000   0.2884996), wk =   0.0020000
        k(   24) = (  -0.0735968   0.0735968   0.3606245), wk =   0.0020000
        k(   25) = (  -0.1471937   0.1471937   0.4327494), wk =   0.0020000
        k(   26) = (   0.5151778  -0.5151778  -0.2163747), wk =   0.0020000
        k(   27) = (   0.4415810  -0.4415810  -0.1442498), wk =   0.0020000
        k(   28) = (   0.3679841  -0.3679841  -0.0721249), wk =   0.0020000
        k(   29) = (   0.2943873  -0.2943873   0.0000000), wk =   0.0020000
        k(   30) = (   0.2207905  -0.2207905   0.0721249), wk =   0.0020000
        k(   31) = (   0.2207905  -0.2207905   0.2163747), wk =   0.0020000
        k(   32) = (   0.1471937  -0.1471937   0.2884996), wk =   0.0020000
        k(   33) = (   0.0735968  -0.0735968   0.3606245), wk =   0.0020000
        k(   34) = (   0.0000000   0.0000000   0.4327494), wk =   0.0020000
        k(   35) = (  -0.0735968   0.0735968   0.5048742), wk =   0.0020000
        k(   36) = (   0.5887746  -0.5887746  -0.1442498), wk =   0.0020000
        k(   37) = (   0.5151778  -0.5151778  -0.0721249), wk =   0.0020000
        k(   38) = (   0.4415810  -0.4415810  -0.0000000), wk =   0.0020000
        k(   39) = (   0.3679841  -0.3679841   0.0721249), wk =   0.0020000
        k(   40) = (   0.2943873  -0.2943873   0.1442498), wk =   0.0020000
        k(   41) = (   0.2943873  -0.2943873   0.2884996), wk =   0.0020000
        k(   42) = (   0.2207905  -0.2207905   0.3606245), wk =   0.0020000
        k(   43) = (   0.1471937  -0.1471937   0.4327494), wk =   0.0020000
        k(   44) = (   0.0735968  -0.0735968   0.5048742), wk =   0.0020000
        k(   45) = (   0.0000000   0.0000000   0.5769991), wk =   0.0020000
        k(   46) = (   0.6623715  -0.6623715  -0.0721249), wk =   0.0020000
        k(   47) = (   0.5887746  -0.5887746   0.0000000), wk =   0.0020000
        k(   48) = (   0.5151778  -0.5151778   0.0721249), wk =   0.0020000
        k(   49) = (   0.4415810  -0.4415810   0.1442498), wk =   0.0020000
        k(   50) = (   0.3679841  -0.3679841   0.2163747), wk =   0.0020000
        k(   51) = (  -0.3679841   0.3679841  -0.3606245), wk =   0.0020000
        k(   52) = (  -0.4415810   0.4415810  -0.2884996), wk =   0.0020000
        k(   53) = (  -0.5151778   0.5151778  -0.2163747), wk =   0.0020000
        k(   54) = (  -0.5887746   0.5887746  -0.1442498), wk =   0.0020000
        k(   55) = (  -0.6623715   0.6623715  -0.0721249), wk =   0.0020000
        k(   56) = (   0.0000000   0.0000000  -0.7212489), wk =   0.0020000
        k(   57) = (  -0.0735968   0.0735968  -0.6491240), wk =   0.0020000
        k(   58) = (  -0.1471937   0.1471937  -0.5769991), wk =   0.0020000
        k(   59) = (  -0.2207905   0.2207905  -0.5048742), wk =   0.0020000
        k(   60) = (  -0.2943873   0.2943873  -0.4327494), wk =   0.0020000
        k(   61) = (  -0.2943873   0.2943873  -0.2884996), wk =   0.0020000
        k(   62) = (  -0.3679841   0.3679841  -0.2163747), wk =   0.0020000
        k(   63) = (  -0.4415810   0.4415810  -0.1442498), wk =   0.0020000
        k(   64) = (  -0.5151778   0.5151778  -0.0721249), wk =   0.0020000
        k(   65) = (  -0.5887746   0.5887746   0.0000000), wk =   0.0020000
        k(   66) = (   0.0735968  -0.0735968  -0.6491240), wk =   0.0020000
        k(   67) = (   0.0000000   0.0000000  -0.5769991), wk =   0.0020000
        k(   68) = (  -0.0735968   0.0735968  -0.5048742), wk =   0.0020000
        k(   69) = (  -0.1471937   0.1471937  -0.4327494), wk =   0.0020000
        k(   70) = (  -0.2207905   0.2207905  -0.3606245), wk =   0.0020000
        k(   71) = (  -0.2207905   0.2207905  -0.2163747), wk =   0.0020000
        k(   72) = (  -0.2943873   0.2943873  -0.1442498), wk =   0.0020000
        k(   73) = (  -0.3679841   0.3679841  -0.0721249), wk =   0.0020000
        k(   74) = (  -0.4415810   0.4415810  -0.0000000), wk =   0.0020000
        k(   75) = (  -0.5151778   0.5151778   0.0721249), wk =   0.0020000
        k(   76) = (   0.1471937  -0.1471937  -0.5769991), wk =   0.0020000
        k(   77) = (   0.0735968  -0.0735968  -0.5048742), wk =   0.0020000
        k(   78) = (   0.0000000   0.0000000  -0.4327494), wk =   0.0020000
        k(   79) = (  -0.0735968   0.0735968  -0.3606245), wk =   0.0020000
        k(   80) = (  -0.1471937   0.1471937  -0.2884996), wk =   0.0020000
        k(   81) = (  -0.1471937   0.1471937  -0.1442498), wk =   0.0020000
        k(   82) = (  -0.2207905   0.2207905  -0.0721249), wk =   0.0020000
        k(   83) = (  -0.2943873   0.2943873   0.0000000), wk =   0.0020000
        k(   84) = (  -0.3679841   0.3679841   0.0721249), wk =   0.0020000
        k(   85) = (  -0.4415810   0.4415810   0.1442498), wk =   0.0020000
        k(   86) = (   0.2207905  -0.2207905  -0.5048742), wk =   0.0020000
        k(   87) = (   0.1471937  -0.1471937  -0.4327494), wk =   0.0020000
        k(   88) = (   0.0735968  -0.0735968  -0.3606245), wk =   0.0020000
        k(   89) = (   0.0000000   0.0000000  -0.2884996), wk =   0.0020000
        k(   90) = (  -0.0735968   0.0735968  -0.2163747), wk =   0.0020000
        k(   91) = (  -0.0735968   0.0735968  -0.0721249), wk =   0.0020000
        k(   92) = (  -0.1471937   0.1471937   0.0000000), wk =   0.0020000
        k(   93) = (  -0.2207905   0.2207905   0.0721249), wk =   0.0020000
        k(   94) = (  -0.2943873   0.2943873   0.1442498), wk =   0.0020000
        k(   95) = (  -0.3679841   0.3679841   0.2163747), wk =   0.0020000
        k(   96) = (   0.2943873  -0.2943873  -0.4327494), wk =   0.0020000
        k(   97) = (   0.2207905  -0.2207905  -0.3606245), wk =   0.0020000
        k(   98) = (   0.1471937  -0.1471937  -0.2884996), wk =   0.0020000
        k(   99) = (   0.0735968  -0.0735968  -0.2163747), wk =   0.0020000
        k(  100) = (   0.0000000   0.0000000  -0.1442498), wk =   0.0020000
        k(  101) = (   0.0707107   0.0707107  -0.0721249), wk =   0.0020000
        k(  102) = (  -0.0028862   0.1443075  -0.0000000), wk =   0.0020000
        k(  103) = (  -0.0764830   0.2179043   0.0721249), wk =   0.0020000
        k(  104) = (  -0.1500798   0.2915012   0.1442498), wk =   0.0020000
        k(  105) = (  -0.2236766   0.3650980   0.2163747), wk =   0.0020000
        k(  106) = (   0.4386948  -0.2972735  -0.4327494), wk =   0.0020000
        k(  107) = (   0.3650980  -0.2236766  -0.3606245), wk =   0.0020000
        k(  108) = (   0.2915012  -0.1500798  -0.2884996), wk =   0.0020000
        k(  109) = (   0.2179043  -0.0764830  -0.2163747), wk =   0.0020000
        k(  110) = (   0.1443075  -0.0028862  -0.1442498), wk =   0.0020000
        k(  111) = (   0.1443075  -0.0028862  -0.0000000), wk =   0.0020000
        k(  112) = (   0.0707107   0.0707107   0.0721249), wk =   0.0020000
        k(  113) = (  -0.0028862   0.1443075   0.1442498), wk =   0.0020000
        k(  114) = (  -0.0764830   0.2179043   0.2163747), wk =   0.0020000
        k(  115) = (  -0.1500798   0.2915012   0.2884996), wk =   0.0020000
        k(  116) = (   0.5122916  -0.3708703  -0.3606245), wk =   0.0020000
        k(  117) = (   0.4386948  -0.2972735  -0.2884996), wk =   0.0020000
        k(  118) = (   0.3650980  -0.2236766  -0.2163747), wk =   0.0020000
        k(  119) = (   0.2915012  -0.1500798  -0.1442498), wk =   0.0020000
        k(  120) = (   0.2179043  -0.0764830  -0.0721249), wk =   0.0020000
        k(  121) = (   0.2179043  -0.0764830   0.0721249), wk =   0.0020000
        k(  122) = (   0.1443075  -0.0028862   0.1442498), wk =   0.0020000
        k(  123) = (   0.0707107   0.0707107   0.2163747), wk =   0.0020000
        k(  124) = (  -0.0028862   0.1443075   0.2884996), wk =   0.0020000
        k(  125) = (  -0.0764830   0.2179043   0.3606245), wk =   0.0020000
        k(  126) = (   0.5858885  -0.4444671  -0.2884996), wk =   0.0020000
        k(  127) = (   0.5122916  -0.3708703  -0.2163747), wk =   0.0020000
        k(  128) = (   0.4386948  -0.2972735  -0.1442498), wk =   0.0020000
        k(  129) = (   0.3650980  -0.2236766  -0.0721249), wk =   0.0020000
        k(  130) = (   0.2915012  -0.1500798  -0.0000000), wk =   0.0020000
        k(  131) = (   0.2915012  -0.1500798   0.1442498), wk =   0.0020000
        k(  132) = (   0.2179043  -0.0764830   0.2163747), wk =   0.0020000
        k(  133) = (   0.1443075  -0.0028862   0.2884996), wk =   0.0020000
        k(  134) = (   0.0707107   0.0707107   0.3606245), wk =   0.0020000
        k(  135) = (  -0.0028862   0.1443075   0.4327494), wk =   0.0020000
        k(  136) = (   0.6594853  -0.5180639  -0.2163747), wk =   0.0020000
        k(  137) = (   0.5858885  -0.4444671  -0.1442498), wk =   0.0020000
        k(  138) = (   0.5122916  -0.3708703  -0.0721249), wk =   0.0020000
        k(  139) = (   0.4386948  -0.2972735  -0.0000000), wk =   0.0020000
        k(  140) = (   0.3650980  -0.2236766   0.0721249), wk =   0.0020000
        k(  141) = (   0.3650980  -0.2236766   0.2163747), wk =   0.0020000
        k(  142) = (   0.2915012  -0.1500798   0.2884996), wk =   0.0020000
        k(  143) = (   0.2179043  -0.0764830   0.3606245), wk =   0.0020000
        k(  144) = (   0.1443075  -0.0028862   0.4327494), wk =   0.0020000
        k(  145) = (   0.0707107   0.0707107   0.5048742), wk =   0.0020000
        k(  146) = (   0.7330821  -0.5916608  -0.1442498), wk =   0.0020000
        k(  147) = (   0.6594853  -0.5180639  -0.0721249), wk =   0.0020000
        k(  148) = (   0.5858885  -0.4444671  -0.0000000), wk =   0.0020000
        k(  149) = (   0.5122916  -0.3708703   0.0721249), wk =   0.0020000
        k(  150) = (   0.4386948  -0.2972735   0.1442498), wk =   0.0020000
        k(  151) = (  -0.2972735   0.4386948  -0.4327494), wk =   0.0020000
        k(  152) = (  -0.3708703   0.5122916  -0.3606245), wk =   0.0020000
        k(  153) = (  -0.4444671   0.5858885  -0.2884996), wk =   0.0020000
        k(  154) = (  -0.5180639   0.6594853  -0.2163747), wk =   0.0020000
        k(  155) = (  -0.5916608   0.7330821  -0.1442498), wk =   0.0020000
        k(  156) = (   0.0707107   0.0707107  -0.7933738), wk =   0.0020000
        k(  157) = (  -0.0028862   0.1443075  -0.7212489), wk =   0.0020000
        k(  158) = (  -0.0764830   0.2179043  -0.6491240), wk =   0.0020000
        k(  159) = (  -0.1500798   0.2915012  -0.5769991), wk =   0.0020000
        k(  160) = (  -0.2236766   0.3650980  -0.5048742), wk =   0.0020000
        k(  161) = (  -0.2236766   0.3650980  -0.3606245), wk =   0.0020000
        k(  162) = (  -0.2972735   0.4386948  -0.2884996), wk =   0.0020000
        k(  163) = (  -0.3708703   0.5122916  -0.2163747), wk =   0.0020000
        k(  164) = (  -0.4444671   0.5858885  -0.1442498), wk =   0.0020000
        k(  165) = (  -0.5180639   0.6594853  -0.0721249), wk =   0.0020000
        k(  166) = (   0.1443075  -0.0028862  -0.7212489), wk =   0.0020000
        k(  167) = (   0.0707107   0.0707107  -0.6491240), wk =   0.0020000
        k(  168) = (  -0.0028862   0.1443075  -0.5769991), wk =   0.0020000
        k(  169) = (  -0.0764830   0.2179043  -0.5048742), wk =   0.0020000
        k(  170) = (  -0.1500798   0.2915012  -0.4327494), wk =   0.0020000
        k(  171) = (  -0.1500798   0.2915012  -0.2884996), wk =   0.0020000
        k(  172) = (  -0.2236766   0.3650980  -0.2163747), wk =   0.0020000
        k(  173) = (  -0.2972735   0.4386948  -0.1442498), wk =   0.0020000
        k(  174) = (  -0.3708703   0.5122916  -0.0721249), wk =   0.0020000
        k(  175) = (  -0.4444671   0.5858885  -0.0000000), wk =   0.0020000
        k(  176) = (   0.2179043  -0.0764830  -0.6491240), wk =   0.0020000
        k(  177) = (   0.1443075  -0.0028862  -0.5769991), wk =   0.0020000
        k(  178) = (   0.0707107   0.0707107  -0.5048742), wk =   0.0020000
        k(  179) = (  -0.0028862   0.1443075  -0.4327494), wk =   0.0020000
        k(  180) = (  -0.0764830   0.2179043  -0.3606245), wk =   0.0020000
        k(  181) = (  -0.0764830   0.2179043  -0.2163747), wk =   0.0020000
        k(  182) = (  -0.1500798   0.2915012  -0.1442498), wk =   0.0020000
        k(  183) = (  -0.2236766   0.3650980  -0.0721249), wk =   0.0020000
        k(  184) = (  -0.2972735   0.4386948  -0.0000000), wk =   0.0020000
        k(  185) = (  -0.3708703   0.5122916   0.0721249), wk =   0.0020000
        k(  186) = (   0.2915012  -0.1500798  -0.5769991), wk =   0.0020000
        k(  187) = (   0.2179043  -0.0764830  -0.5048742), wk =   0.0020000
        k(  188) = (   0.1443075  -0.0028862  -0.4327494), wk =   0.0020000
        k(  189) = (   0.0707107   0.0707107  -0.3606245), wk =   0.0020000
        k(  190) = (  -0.0028862   0.1443075  -0.2884996), wk =   0.0020000
        k(  191) = (  -0.0028862   0.1443075  -0.1442498), wk =   0.0020000
        k(  192) = (  -0.0764830   0.2179043  -0.0721249), wk =   0.0020000
        k(  193) = (  -0.1500798   0.2915012  -0.0000000), wk =   0.0020000
        k(  194) = (  -0.2236766   0.3650980   0.0721249), wk =   0.0020000
        k(  195) = (  -0.2972735   0.4386948   0.1442498), wk =   0.0020000
        k(  196) = (   0.3650980  -0.2236766  -0.5048742), wk =   0.0020000
        k(  197) = (   0.2915012  -0.1500798  -0.4327494), wk =   0.0020000
        k(  198) = (   0.2179043  -0.0764830  -0.3606245), wk =   0.0020000
        k(  199) = (   0.1443075  -0.0028862  -0.2884996), wk =   0.0020000
        k(  200) = (   0.0707107   0.0707107  -0.2163747), wk =   0.0020000
        k(  201) = (   0.1414214   0.1414214  -0.1442498), wk =   0.0020000
        k(  202) = (   0.0678245   0.2150182  -0.0721249), wk =   0.0020000
        k(  203) = (  -0.0057723   0.2886150  -0.0000000), wk =   0.0020000
        k(  204) = (  -0.0793691   0.3622118   0.0721249), wk =   0.0020000
        k(  205) = (  -0.1529660   0.4358087   0.1442498), wk =   0.0020000
        k(  206) = (   0.5094055  -0.2265628  -0.5048742), wk =   0.0020000
        k(  207) = (   0.4358087  -0.1529660  -0.4327494), wk =   0.0020000
        k(  208) = (   0.3622118  -0.0793691  -0.3606245), wk =   0.0020000
        k(  209) = (   0.2886150  -0.0057723  -0.2884996), wk =   0.0020000
        k(  210) = (   0.2150182   0.0678245  -0.2163747), wk =   0.0020000
        k(  211) = (   0.2150182   0.0678245  -0.0721249), wk =   0.0020000
        k(  212) = (   0.1414214   0.1414214  -0.0000000), wk =   0.0020000
        k(  213) = (   0.0678245   0.2150182   0.0721249), wk =   0.0020000
        k(  214) = (  -0.0057723   0.2886150   0.1442498), wk =   0.0020000
        k(  215) = (  -0.0793691   0.3622118   0.2163747), wk =   0.0020000
        k(  216) = (   0.5830023  -0.3001596  -0.4327494), wk =   0.0020000
        k(  217) = (   0.5094055  -0.2265628  -0.3606245), wk =   0.0020000
        k(  218) = (   0.4358087  -0.1529660  -0.2884996), wk =   0.0020000
        k(  219) = (   0.3622118  -0.0793691  -0.2163747), wk =   0.0020000
        k(  220) = (   0.2886150  -0.0057723  -0.1442498), wk =   0.0020000
        k(  221) = (   0.2886150  -0.0057723  -0.0000000), wk =   0.0020000
        k(  222) = (   0.2150182   0.0678245   0.0721249), wk =   0.0020000
        k(  223) = (   0.1414214   0.1414214   0.1442498), wk =   0.0020000
        k(  224) = (   0.0678245   0.2150182   0.2163747), wk =   0.0020000
        k(  225) = (  -0.0057723   0.2886150   0.2884996), wk =   0.0020000
        k(  226) = (   0.6565992  -0.3737564  -0.3606245), wk =   0.0020000
        k(  227) = (   0.5830023  -0.3001596  -0.2884996), wk =   0.0020000
        k(  228) = (   0.5094055  -0.2265628  -0.2163747), wk =   0.0020000
        k(  229) = (   0.4358087  -0.1529660  -0.1442498), wk =   0.0020000
        k(  230) = (   0.3622118  -0.0793691  -0.0721249), wk =   0.0020000
        k(  231) = (   0.3622118  -0.0793691   0.0721249), wk =   0.0020000
        k(  232) = (   0.2886150  -0.0057723   0.1442498), wk =   0.0020000
        k(  233) = (   0.2150182   0.0678245   0.2163747), wk =   0.0020000
        k(  234) = (   0.1414214   0.1414214   0.2884996), wk =   0.0020000
        k(  235) = (   0.0678245   0.2150182   0.3606245), wk =   0.0020000
        k(  236) = (   0.7301960  -0.4473533  -0.2884996), wk =   0.0020000
        k(  237) = (   0.6565992  -0.3737564  -0.2163747), wk =   0.0020000
        k(  238) = (   0.5830023  -0.3001596  -0.1442498), wk =   0.0020000
        k(  239) = (   0.5094055  -0.2265628  -0.0721249), wk =   0.0020000
        k(  240) = (   0.4358087  -0.1529660  -0.0000000), wk =   0.0020000
        k(  241) = (   0.4358087  -0.1529660   0.1442498), wk =   0.0020000
        k(  242) = (   0.3622118  -0.0793691   0.2163747), wk =   0.0020000
        k(  243) = (   0.2886150  -0.0057723   0.2884996), wk =   0.0020000
        k(  244) = (   0.2150182   0.0678245   0.3606245), wk =   0.0020000
        k(  245) = (   0.1414214   0.1414214   0.4327494), wk =   0.0020000
        k(  246) = (   0.8037928  -0.5209501  -0.2163747), wk =   0.0020000
        k(  247) = (   0.7301960  -0.4473533  -0.1442498), wk =   0.0020000
        k(  248) = (   0.6565992  -0.3737564  -0.0721249), wk =   0.0020000
        k(  249) = (   0.5830023  -0.3001596  -0.0000000), wk =   0.0020000
        k(  250) = (   0.5094055  -0.2265628   0.0721249), wk =   0.0020000
        k(  251) = (  -0.2265628   0.5094055  -0.5048742), wk =   0.0020000
        k(  252) = (  -0.3001596   0.5830023  -0.4327494), wk =   0.0020000
        k(  253) = (  -0.3737564   0.6565992  -0.3606245), wk =   0.0020000
        k(  254) = (  -0.4473533   0.7301960  -0.2884996), wk =   0.0020000
        k(  255) = (  -0.5209501   0.8037928  -0.2163747), wk =   0.0020000
        k(  256) = (   0.1414214   0.1414214  -0.8654987), wk =   0.0020000
        k(  257) = (   0.0678245   0.2150182  -0.7933738), wk =   0.0020000
        k(  258) = (  -0.0057723   0.2886150  -0.7212489), wk =   0.0020000
        k(  259) = (  -0.0793691   0.3622118  -0.6491240), wk =   0.0020000
        k(  260) = (  -0.1529660   0.4358087  -0.5769991), wk =   0.0020000
        k(  261) = (  -0.1529660   0.4358087  -0.4327494), wk =   0.0020000
        k(  262) = (  -0.2265628   0.5094055  -0.3606245), wk =   0.0020000
        k(  263) = (  -0.3001596   0.5830023  -0.2884996), wk =   0.0020000
        k(  264) = (  -0.3737564   0.6565992  -0.2163747), wk =   0.0020000
        k(  265) = (  -0.4473533   0.7301960  -0.1442498), wk =   0.0020000
        k(  266) = (   0.2150182   0.0678245  -0.7933738), wk =   0.0020000
        k(  267) = (   0.1414214   0.1414214  -0.7212489), wk =   0.0020000
        k(  268) = (   0.0678245   0.2150182  -0.6491240), wk =   0.0020000
        k(  269) = (  -0.0057723   0.2886150  -0.5769991), wk =   0.0020000
        k(  270) = (  -0.0793691   0.3622118  -0.5048742), wk =   0.0020000
        k(  271) = (  -0.0793691   0.3622118  -0.3606245), wk =   0.0020000
        k(  272) = (  -0.1529660   0.4358087  -0.2884996), wk =   0.0020000
        k(  273) = (  -0.2265628   0.5094055  -0.2163747), wk =   0.0020000
        k(  274) = (  -0.3001596   0.5830023  -0.1442498), wk =   0.0020000
        k(  275) = (  -0.3737564   0.6565992  -0.0721249), wk =   0.0020000
        k(  276) = (   0.2886150  -0.0057723  -0.7212489), wk =   0.0020000
        k(  277) = (   0.2150182   0.0678245  -0.6491240), wk =   0.0020000
        k(  278) = (   0.1414214   0.1414214  -0.5769991), wk =   0.0020000
        k(  279) = (   0.0678245   0.2150182  -0.5048742), wk =   0.0020000
        k(  280) = (  -0.0057723   0.2886150  -0.4327494), wk =   0.0020000
        k(  281) = (  -0.0057723   0.2886150  -0.2884996), wk =   0.0020000
        k(  282) = (  -0.0793691   0.3622118  -0.2163747), wk =   0.0020000
        k(  283) = (  -0.1529660   0.4358087  -0.1442498), wk =   0.0020000
        k(  284) = (  -0.2265628   0.5094055  -0.0721249), wk =   0.0020000
        k(  285) = (  -0.3001596   0.5830023  -0.0000000), wk =   0.0020000
        k(  286) = (   0.3622118  -0.0793691  -0.6491240), wk =   0.0020000
        k(  287) = (   0.2886150  -0.0057723  -0.5769991), wk =   0.0020000
        k(  288) = (   0.2150182   0.0678245  -0.5048742), wk =   0.0020000
        k(  289) = (   0.1414214   0.1414214  -0.4327494), wk =   0.0020000
        k(  290) = (   0.0678245   0.2150182  -0.3606245), wk =   0.0020000
        k(  291) = (   0.0678245   0.2150182  -0.2163747), wk =   0.0020000
        k(  292) = (  -0.0057723   0.2886150  -0.1442498), wk =   0.0020000
        k(  293) = (  -0.0793691   0.3622118  -0.0721249), wk =   0.0020000
        k(  294) = (  -0.1529660   0.4358087  -0.0000000), wk =   0.0020000
        k(  295) = (  -0.2265628   0.5094055   0.0721249), wk =   0.0020000
        k(  296) = (   0.4358087  -0.1529660  -0.5769991), wk =   0.0020000
        k(  297) = (   0.3622118  -0.0793691  -0.5048742), wk =   0.0020000
        k(  298) = (   0.2886150  -0.0057723  -0.4327494), wk =   0.0020000
        k(  299) = (   0.2150182   0.0678245  -0.3606245), wk =   0.0020000
        k(  300) = (   0.1414214   0.1414214  -0.2884996), wk =   0.0020000
        k(  301) = (   0.2121320   0.2121320  -0.2163747), wk =   0.0020000
        k(  302) = (   0.1385352   0.2857289  -0.1442498), wk =   0.0020000
        k(  303) = (   0.0649384   0.3593257  -0.0721249), wk =   0.0020000
        k(  304) = (  -0.0086585   0.4329225  -0.0000000), wk =   0.0020000
        k(  305) = (  -0.0822553   0.5065193   0.0721249), wk =   0.0020000
        k(  306) = (   0.5801162  -0.1558521  -0.5769991), wk =   0.0020000
        k(  307) = (   0.5065193  -0.0822553  -0.5048742), wk =   0.0020000
        k(  308) = (   0.4329225  -0.0086585  -0.4327494), wk =   0.0020000
        k(  309) = (   0.3593257   0.0649384  -0.3606245), wk =   0.0020000
        k(  310) = (   0.2857289   0.1385352  -0.2884996), wk =   0.0020000
        k(  311) = (   0.2857289   0.1385352  -0.1442498), wk =   0.0020000
        k(  312) = (   0.2121320   0.2121320  -0.0721249), wk =   0.0020000
        k(  313) = (   0.1385352   0.2857289  -0.0000000), wk =   0.0020000
        k(  314) = (   0.0649384   0.3593257   0.0721249), wk =   0.0020000
        k(  315) = (  -0.0086585   0.4329225   0.1442498), wk =   0.0020000
        k(  316) = (   0.6537130  -0.2294489  -0.5048742), wk =   0.0020000
        k(  317) = (   0.5801162  -0.1558521  -0.4327494), wk =   0.0020000
        k(  318) = (   0.5065193  -0.0822553  -0.3606245), wk =   0.0020000
        k(  319) = (   0.4329225  -0.0086585  -0.2884996), wk =   0.0020000
        k(  320) = (   0.3593257   0.0649384  -0.2163747), wk =   0.0020000
        k(  321) = (   0.3593257   0.0649384  -0.0721249), wk =   0.0020000
        k(  322) = (   0.2857289   0.1385352  -0.0000000), wk =   0.0020000
        k(  323) = (   0.2121320   0.2121320   0.0721249), wk =   0.0020000
        k(  324) = (   0.1385352   0.2857289   0.1442498), wk =   0.0020000
        k(  325) = (   0.0649384   0.3593257   0.2163747), wk =   0.0020000
        k(  326) = (   0.7273098  -0.3030458  -0.4327494), wk =   0.0020000
        k(  327) = (   0.6537130  -0.2294489  -0.3606245), wk =   0.0020000
        k(  328) = (   0.5801162  -0.1558521  -0.2884996), wk =   0.0020000
        k(  329) = (   0.5065193  -0.0822553  -0.2163747), wk =   0.0020000
        k(  330) = (   0.4329225  -0.0086585  -0.1442498), wk =   0.0020000
        k(  331) = (   0.4329225  -0.0086585  -0.0000000), wk =   0.0020000
        k(  332) = (   0.3593257   0.0649384   0.0721249), wk =   0.0020000
        k(  333) = (   0.2857289   0.1385352   0.1442498), wk =   0.0020000
        k(  334) = (   0.2121320   0.2121320   0.2163747), wk =   0.0020000
        k(  335) = (   0.1385352   0.2857289   0.2884996), wk =   0.0020000
        k(  336) = (   0.8009067  -0.3766426  -0.3606245), wk =   0.0020000
        k(  337) = (   0.7273098  -0.3030458  -0.2884996), wk =   0.0020000
        k(  338) = (   0.6537130  -0.2294489  -0.2163747), wk =   0.0020000
        k(  339) = (   0.5801162  -0.1558521  -0.1442498), wk =   0.0020000
        k(  340) = (   0.5065193  -0.0822553  -0.0721249), wk =   0.0020000
        k(  341) = (   0.5065193  -0.0822553   0.0721249), wk =   0.0020000
        k(  342) = (   0.4329225  -0.0086585   0.1442498), wk =   0.0020000
        k(  343) = (   0.3593257   0.0649384   0.2163747), wk =   0.0020000
        k(  344) = (   0.2857289   0.1385352   0.2884996), wk =   0.0020000
        k(  345) = (   0.2121320   0.2121320   0.3606245), wk =   0.0020000
        k(  346) = (   0.8745035  -0.4502394  -0.2884996), wk =   0.0020000
        k(  347) = (   0.8009067  -0.3766426  -0.2163747), wk =   0.0020000
        k(  348) = (   0.7273098  -0.3030458  -0.1442498), wk =   0.0020000
        k(  349) = (   0.6537130  -0.2294489  -0.0721249), wk =   0.0020000
        k(  350) = (   0.5801162  -0.1558521  -0.0000000), wk =   0.0020000
        k(  351) = (  -0.1558521   0.5801162  -0.5769991), wk =   0.0020000
        k(  352) = (  -0.2294489   0.6537130  -0.5048742), wk =   0.0020000
        k(  353) = (  -0.3030458   0.7273098  -0.4327494), wk =   0.0020000
        k(  354) = (  -0.3766426   0.8009067  -0.3606245), wk =   0.0020000
        k(  355) = (  -0.4502394   0.8745035  -0.2884996), wk =   0.0020000
        k(  356) = (   0.2121320   0.2121320  -0.9376236), wk =   0.0020000
        k(  357) = (   0.1385352   0.2857289  -0.8654987), wk =   0.0020000
        k(  358) = (   0.0649384   0.3593257  -0.7933738), wk =   0.0020000
        k(  359) = (  -0.0086585   0.4329225  -0.7212489), wk =   0.0020000
        k(  360) = (  -0.0822553   0.5065193  -0.6491240), wk =   0.0020000
        k(  361) = (  -0.0822553   0.5065193  -0.5048742), wk =   0.0020000
        k(  362) = (  -0.1558521   0.5801162  -0.4327494), wk =   0.0020000
        k(  363) = (  -0.2294489   0.6537130  -0.3606245), wk =   0.0020000
        k(  364) = (  -0.3030458   0.7273098  -0.2884996), wk =   0.0020000
        k(  365) = (  -0.3766426   0.8009067  -0.2163747), wk =   0.0020000
        k(  366) = (   0.2857289   0.1385352  -0.8654987), wk =   0.0020000
        k(  367) = (   0.2121320   0.2121320  -0.7933738), wk =   0.0020000
        k(  368) = (   0.1385352   0.2857289  -0.7212489), wk =   0.0020000
        k(  369) = (   0.0649384   0.3593257  -0.6491240), wk =   0.0020000
        k(  370) = (  -0.0086585   0.4329225  -0.5769991), wk =   0.0020000
        k(  371) = (  -0.0086585   0.4329225  -0.4327494), wk =   0.0020000
        k(  372) = (  -0.0822553   0.5065193  -0.3606245), wk =   0.0020000
        k(  373) = (  -0.1558521   0.5801162  -0.2884996), wk =   0.0020000
        k(  374) = (  -0.2294489   0.6537130  -0.2163747), wk =   0.0020000
        k(  375) = (  -0.3030458   0.7273098  -0.1442498), wk =   0.0020000
        k(  376) = (   0.3593257   0.0649384  -0.7933738), wk =   0.0020000
        k(  377) = (   0.2857289   0.1385352  -0.7212489), wk =   0.0020000
        k(  378) = (   0.2121320   0.2121320  -0.6491240), wk =   0.0020000
        k(  379) = (   0.1385352   0.2857289  -0.5769991), wk =   0.0020000
        k(  380) = (   0.0649384   0.3593257  -0.5048742), wk =   0.0020000
        k(  381) = (   0.0649384   0.3593257  -0.3606245), wk =   0.0020000
        k(  382) = (  -0.0086585   0.4329225  -0.2884996), wk =   0.0020000
        k(  383) = (  -0.0822553   0.5065193  -0.2163747), wk =   0.0020000
        k(  384) = (  -0.1558521   0.5801162  -0.1442498), wk =   0.0020000
        k(  385) = (  -0.2294489   0.6537130  -0.0721249), wk =   0.0020000
        k(  386) = (   0.4329225  -0.0086585  -0.7212489), wk =   0.0020000
        k(  387) = (   0.3593257   0.0649384  -0.6491240), wk =   0.0020000
        k(  388) = (   0.2857289   0.1385352  -0.5769991), wk =   0.0020000
        k(  389) = (   0.2121320   0.2121320  -0.5048742), wk =   0.0020000
        k(  390) = (   0.1385352   0.2857289  -0.4327494), wk =   0.0020000
        k(  391) = (   0.1385352   0.2857289  -0.2884996), wk =   0.0020000
        k(  392) = (   0.0649384   0.3593257  -0.2163747), wk =   0.0020000
        k(  393) = (  -0.0086585   0.4329225  -0.1442498), wk =   0.0020000
        k(  394) = (  -0.0822553   0.5065193  -0.0721249), wk =   0.0020000
        k(  395) = (  -0.1558521   0.5801162  -0.0000000), wk =   0.0020000
        k(  396) = (   0.5065193  -0.0822553  -0.6491240), wk =   0.0020000
        k(  397) = (   0.4329225  -0.0086585  -0.5769991), wk =   0.0020000
        k(  398) = (   0.3593257   0.0649384  -0.5048742), wk =   0.0020000
        k(  399) = (   0.2857289   0.1385352  -0.4327494), wk =   0.0020000
        k(  400) = (   0.2121320   0.2121320  -0.3606245), wk =   0.0020000
        k(  401) = (   0.2828427   0.2828427  -0.2884996), wk =   0.0020000
        k(  402) = (   0.2092459   0.3564395  -0.2163747), wk =   0.0020000
        k(  403) = (   0.1356491   0.4300364  -0.1442498), wk =   0.0020000
        k(  404) = (   0.0620522   0.5036332  -0.0721249), wk =   0.0020000
        k(  405) = (  -0.0115446   0.5772300  -0.0000000), wk =   0.0020000
        k(  406) = (   0.6508269  -0.0851414  -0.6491240), wk =   0.0020000
        k(  407) = (   0.5772300  -0.0115446  -0.5769991), wk =   0.0020000
        k(  408) = (   0.5036332   0.0620522  -0.5048742), wk =   0.0020000
        k(  409) = (   0.4300364   0.1356491  -0.4327494), wk =   0.0020000
        k(  410) = (   0.3564395   0.2092459  -0.3606245), wk =   0.0020000
        k(  411) = (   0.3564395   0.2092459  -0.2163747), wk =   0.0020000
        k(  412) = (   0.2828427   0.2828427  -0.1442498), wk =   0.0020000
        k(  413) = (   0.2092459   0.3564395  -0.0721249), wk =   0.0020000
        k(  414) = (   0.1356491   0.4300364  -0.0000000), wk =   0.0020000
        k(  415) = (   0.0620522   0.5036332   0.0721249), wk =   0.0020000
        k(  416) = (   0.7244237  -0.1587383  -0.5769991), wk =   0.0020000
        k(  417) = (   0.6508269  -0.0851414  -0.5048742), wk =   0.0020000
        k(  418) = (   0.5772300  -0.0115446  -0.4327494), wk =   0.0020000
        k(  419) = (   0.5036332   0.0620522  -0.3606245), wk =   0.0020000
        k(  420) = (   0.4300364   0.1356491  -0.2884996), wk =   0.0020000
        k(  421) = (   0.4300364   0.1356491  -0.1442498), wk =   0.0020000
        k(  422) = (   0.3564395   0.2092459  -0.0721249), wk =   0.0020000
        k(  423) = (   0.2828427   0.2828427  -0.0000000), wk =   0.0020000
        k(  424) = (   0.2092459   0.3564395   0.0721249), wk =   0.0020000
        k(  425) = (   0.1356491   0.4300364   0.1442498), wk =   0.0020000
        k(  426) = (   0.7980205  -0.2323351  -0.5048742), wk =   0.0020000
        k(  427) = (   0.7244237  -0.1587383  -0.4327494), wk =   0.0020000
        k(  428) = (   0.6508269  -0.0851414  -0.3606245), wk =   0.0020000
        k(  429) = (   0.5772300  -0.0115446  -0.2884996), wk =   0.0020000
        k(  430) = (   0.5036332   0.0620522  -0.2163747), wk =   0.0020000
        k(  431) = (   0.5036332   0.0620522  -0.0721249), wk =   0.0020000
        k(  432) = (   0.4300364   0.1356491  -0.0000000), wk =   0.0020000
        k(  433) = (   0.3564395   0.2092459   0.0721249), wk =   0.0020000
        k(  434) = (   0.2828427   0.2828427   0.1442498), wk =   0.0020000
        k(  435) = (   0.2092459   0.3564395   0.2163747), wk =   0.0020000
        k(  436) = (   0.8716173  -0.3059319  -0.4327494), wk =   0.0020000
        k(  437) = (   0.7980205  -0.2323351  -0.3606245), wk =   0.0020000
        k(  438) = (   0.7244237  -0.1587383  -0.2884996), wk =   0.0020000
        k(  439) = (   0.6508269  -0.0851414  -0.2163747), wk =   0.0020000
        k(  440) = (   0.5772300  -0.0115446  -0.1442498), wk =   0.0020000
        k(  441) = (   0.5772300  -0.0115446  -0.0000000), wk =   0.0020000
        k(  442) = (   0.5036332   0.0620522   0.0721249), wk =   0.0020000
        k(  443) = (   0.4300364   0.1356491   0.1442498), wk =   0.0020000
        k(  444) = (   0.3564395   0.2092459   0.2163747), wk =   0.0020000
        k(  445) = (   0.2828427   0.2828427   0.2884996), wk =   0.0020000
        k(  446) = (   0.9452142  -0.3795287  -0.3606245), wk =   0.0020000
        k(  447) = (   0.8716173  -0.3059319  -0.2884996), wk =   0.0020000
        k(  448) = (   0.7980205  -0.2323351  -0.2163747), wk =   0.0020000
        k(  449) = (   0.7244237  -0.1587383  -0.1442498), wk =   0.0020000
        k(  450) = (   0.6508269  -0.0851414  -0.0721249), wk =   0.0020000
        k(  451) = (  -0.0851414   0.6508269  -0.6491240), wk =   0.0020000
        k(  452) = (  -0.1587383   0.7244237  -0.5769991), wk =   0.0020000
        k(  453) = (  -0.2323351   0.7980205  -0.5048742), wk =   0.0020000
        k(  454) = (  -0.3059319   0.8716173  -0.4327494), wk =   0.0020000
        k(  455) = (  -0.3795287   0.9452142  -0.3606245), wk =   0.0020000
        k(  456) = (   0.2828427   0.2828427  -1.0097485), wk =   0.0020000
        k(  457) = (   0.2092459   0.3564395  -0.9376236), wk =   0.0020000
        k(  458) = (   0.1356491   0.4300364  -0.8654987), wk =   0.0020000
        k(  459) = (   0.0620522   0.5036332  -0.7933738), wk =   0.0020000
        k(  460) = (  -0.0115446   0.5772300  -0.7212489), wk =   0.0020000
        k(  461) = (  -0.0115446   0.5772300  -0.5769991), wk =   0.0020000
        k(  462) = (  -0.0851414   0.6508269  -0.5048742), wk =   0.0020000
        k(  463) = (  -0.1587383   0.7244237  -0.4327494), wk =   0.0020000
        k(  464) = (  -0.2323351   0.7980205  -0.3606245), wk =   0.0020000
        k(  465) = (  -0.3059319   0.8716173  -0.2884996), wk =   0.0020000
        k(  466) = (   0.3564395   0.2092459  -0.9376236), wk =   0.0020000
        k(  467) = (   0.2828427   0.2828427  -0.8654987), wk =   0.0020000
        k(  468) = (   0.2092459   0.3564395  -0.7933738), wk =   0.0020000
        k(  469) = (   0.1356491   0.4300364  -0.7212489), wk =   0.0020000
        k(  470) = (   0.0620522   0.5036332  -0.6491240), wk =   0.0020000
        k(  471) = (   0.0620522   0.5036332  -0.5048742), wk =   0.0020000
        k(  472) = (  -0.0115446   0.5772300  -0.4327494), wk =   0.0020000
        k(  473) = (  -0.0851414   0.6508269  -0.3606245), wk =   0.0020000
        k(  474) = (  -0.1587383   0.7244237  -0.2884996), wk =   0.0020000
        k(  475) = (  -0.2323351   0.7980205  -0.2163747), wk =   0.0020000
        k(  476) = (   0.4300364   0.1356491  -0.8654987), wk =   0.0020000
        k(  477) = (   0.3564395   0.2092459  -0.7933738), wk =   0.0020000
        k(  478) = (   0.2828427   0.2828427  -0.7212489), wk =   0.0020000
        k(  479) = (   0.2092459   0.3564395  -0.6491240), wk =   0.0020000
        k(  480) = (   0.1356491   0.4300364  -0.5769991), wk =   0.0020000
        k(  481) = (   0.1356491   0.4300364  -0.4327494), wk =   0.0020000
        k(  482) = (   0.0620522   0.5036332  -0.3606245), wk =   0.0020000
        k(  483) = (  -0.0115446   0.5772300  -0.2884996), wk =   0.0020000
        k(  484) = (  -0.0851414   0.6508269  -0.2163747), wk =   0.0020000
        k(  485) = (  -0.1587383   0.7244237  -0.1442498), wk =   0.0020000
        k(  486) = (   0.5036332   0.0620522  -0.7933738), wk =   0.0020000
        k(  487) = (   0.4300364   0.1356491  -0.7212489), wk =   0.0020000
        k(  488) = (   0.3564395   0.2092459  -0.6491240), wk =   0.0020000
        k(  489) = (   0.2828427   0.2828427  -0.5769991), wk =   0.0020000
        k(  490) = (   0.2092459   0.3564395  -0.5048742), wk =   0.0020000
        k(  491) = (   0.2092459   0.3564395  -0.3606245), wk =   0.0020000
        k(  492) = (   0.1356491   0.4300364  -0.2884996), wk =   0.0020000
        k(  493) = (   0.0620522   0.5036332  -0.2163747), wk =   0.0020000
        k(  494) = (  -0.0115446   0.5772300  -0.1442498), wk =   0.0020000
        k(  495) = (  -0.0851414   0.6508269  -0.0721249), wk =   0.0020000
        k(  496) = (   0.5772300  -0.0115446  -0.7212489), wk =   0.0020000
        k(  497) = (   0.5036332   0.0620522  -0.6491240), wk =   0.0020000
        k(  498) = (   0.4300364   0.1356491  -0.5769991), wk =   0.0020000
        k(  499) = (   0.3564395   0.2092459  -0.5048742), wk =   0.0020000
        k(  500) = (   0.2828427   0.2828427  -0.4327494), wk =   0.0020000
        k(  501) = (  -0.3535534  -0.3535534   0.3606245), wk =   0.0020000
        k(  502) = (  -0.4271502  -0.2799566   0.4327494), wk =   0.0020000
        k(  503) = (  -0.5007470  -0.2063597   0.5048742), wk =   0.0020000
        k(  504) = (  -0.5743439  -0.1327629   0.5769991), wk =   0.0020000
        k(  505) = (  -0.6479407  -0.0591661   0.6491240), wk =   0.0020000
        k(  506) = (   0.0144308  -0.7215375   0.0000000), wk =   0.0020000
        k(  507) = (  -0.0591661  -0.6479407   0.0721249), wk =   0.0020000
        k(  508) = (  -0.1327629  -0.5743439   0.1442498), wk =   0.0020000
        k(  509) = (  -0.2063597  -0.5007470   0.2163747), wk =   0.0020000
        k(  510) = (  -0.2799566  -0.4271502   0.2884996), wk =   0.0020000
        k(  511) = (  -0.2799566  -0.4271502   0.4327494), wk =   0.0020000
        k(  512) = (  -0.3535534  -0.3535534   0.5048742), wk =   0.0020000
        k(  513) = (  -0.4271502  -0.2799566   0.5769991), wk =   0.0020000
        k(  514) = (  -0.5007470  -0.2063597   0.6491240), wk =   0.0020000
        k(  515) = (  -0.5743439  -0.1327629   0.7212489), wk =   0.0020000
        k(  516) = (   0.0880276  -0.7951344   0.0721249), wk =   0.0020000
        k(  517) = (   0.0144308  -0.7215375   0.1442498), wk =   0.0020000
        k(  518) = (  -0.0591661  -0.6479407   0.2163747), wk =   0.0020000
        k(  519) = (  -0.1327629  -0.5743439   0.2884996), wk =   0.0020000
        k(  520) = (  -0.2063597  -0.5007470   0.3606245), wk =   0.0020000
        k(  521) = (  -0.2063597  -0.5007470   0.5048742), wk =   0.0020000
        k(  522) = (  -0.2799566  -0.4271502   0.5769991), wk =   0.0020000
        k(  523) = (  -0.3535534  -0.3535534   0.6491240), wk =   0.0020000
        k(  524) = (  -0.4271502  -0.2799566   0.7212489), wk =   0.0020000
        k(  525) = (  -0.5007470  -0.2063597   0.7933738), wk =   0.0020000
        k(  526) = (   0.1616244  -0.8687312   0.1442498), wk =   0.0020000
        k(  527) = (   0.0880276  -0.7951344   0.2163747), wk =   0.0020000
        k(  528) = (   0.0144308  -0.7215375   0.2884996), wk =   0.0020000
        k(  529) = (  -0.0591661  -0.6479407   0.3606245), wk =   0.0020000
        k(  530) = (  -0.1327629  -0.5743439   0.4327494), wk =   0.0020000
        k(  531) = (  -0.1327629  -0.5743439   0.5769991), wk =   0.0020000
        k(  532) = (  -0.2063597  -0.5007470   0.6491240), wk =   0.0020000
        k(  533) = (  -0.2799566  -0.4271502   0.7212489), wk =   0.0020000
        k(  534) = (  -0.3535534  -0.3535534   0.7933738), wk =   0.0020000
        k(  535) = (  -0.4271502  -0.2799566   0.8654987), wk =   0.0020000
        k(  536) = (   0.2352212  -0.9423280   0.2163747), wk =   0.0020000
        k(  537) = (   0.1616244  -0.8687312   0.2884996), wk =   0.0020000
        k(  538) = (   0.0880276  -0.7951344   0.3606245), wk =   0.0020000
        k(  539) = (   0.0144308  -0.7215375   0.4327494), wk =   0.0020000
        k(  540) = (  -0.0591661  -0.6479407   0.5048742), wk =   0.0020000
        k(  541) = (  -0.0591661  -0.6479407   0.6491240), wk =   0.0020000
        k(  542) = (  -0.1327629  -0.5743439   0.7212489), wk =   0.0020000
        k(  543) = (  -0.2063597  -0.5007470   0.7933738), wk =   0.0020000
        k(  544) = (  -0.2799566  -0.4271502   0.8654987), wk =   0.0020000
        k(  545) = (  -0.3535534  -0.3535534   0.9376236), wk =   0.0020000
        k(  546) = (   0.3088181  -1.0159248   0.2884996), wk =   0.0020000
        k(  547) = (   0.2352212  -0.9423280   0.3606245), wk =   0.0020000
        k(  548) = (   0.1616244  -0.8687312   0.4327494), wk =   0.0020000
        k(  549) = (   0.0880276  -0.7951344   0.5048742), wk =   0.0020000
        k(  550) = (   0.0144308  -0.7215375   0.5769991), wk =   0.0020000
        k(  551) = (  -0.7215375   0.0144308   0.0000000), wk =   0.0020000
        k(  552) = (  -0.7951344   0.0880276   0.0721249), wk =   0.0020000
        k(  553) = (  -0.8687312   0.1616244   0.1442498), wk =   0.0020000
        k(  554) = (  -0.9423280   0.2352212   0.2163747), wk =   0.0020000
        k(  555) = (  -1.0159248   0.3088181   0.2884996), wk =   0.0020000
        k(  556) = (  -0.3535534  -0.3535534  -0.3606245), wk =   0.0020000
        k(  557) = (  -0.4271502  -0.2799566  -0.2884996), wk =   0.0020000
        k(  558) = (  -0.5007470  -0.2063597  -0.2163747), wk =   0.0020000
        k(  559) = (  -0.5743439  -0.1327629  -0.1442498), wk =   0.0020000
        k(  560) = (  -0.6479407  -0.0591661  -0.0721249), wk =   0.0020000
        k(  561) = (  -0.6479407  -0.0591661   0.0721249), wk =   0.0020000
        k(  562) = (  -0.7215375   0.0144308   0.1442498), wk =   0.0020000
        k(  563) = (  -0.7951344   0.0880276   0.2163747), wk =   0.0020000
        k(  564) = (  -0.8687312   0.1616244   0.2884996), wk =   0.0020000
        k(  565) = (  -0.9423280   0.2352212   0.3606245), wk =   0.0020000
        k(  566) = (  -0.2799566  -0.4271502  -0.2884996), wk =   0.0020000
        k(  567) = (  -0.3535534  -0.3535534  -0.2163747), wk =   0.0020000
        k(  568) = (  -0.4271502  -0.2799566  -0.1442498), wk =   0.0020000
        k(  569) = (  -0.5007470  -0.2063597  -0.0721249), wk =   0.0020000
        k(  570) = (  -0.5743439  -0.1327629   0.0000000), wk =   0.0020000
        k(  571) = (  -0.5743439  -0.1327629   0.1442498), wk =   0.0020000
        k(  572) = (  -0.6479407  -0.0591661   0.2163747), wk =   0.0020000
        k(  573) = (  -0.7215375   0.0144308   0.2884996), wk =   0.0020000
        k(  574) = (  -0.7951344   0.0880276   0.3606245), wk =   0.0020000
        k(  575) = (  -0.8687312   0.1616244   0.4327494), wk =   0.0020000
        k(  576) = (  -0.2063597  -0.5007470  -0.2163747), wk =   0.0020000
        k(  577) = (  -0.2799566  -0.4271502  -0.1442498), wk =   0.0020000
        k(  578) = (  -0.3535534  -0.3535534  -0.0721249), wk =   0.0020000
        k(  579) = (  -0.4271502  -0.2799566   0.0000000), wk =   0.0020000
        k(  580) = (  -0.5007470  -0.2063597   0.0721249), wk =   0.0020000
        k(  581) = (  -0.5007470  -0.2063597   0.2163747), wk =   0.0020000
        k(  582) = (  -0.5743439  -0.1327629   0.2884996), wk =   0.0020000
        k(  583) = (  -0.6479407  -0.0591661   0.3606245), wk =   0.0020000
        k(  584) = (  -0.7215375   0.0144308   0.4327494), wk =   0.0020000
        k(  585) = (  -0.7951344   0.0880276   0.5048742), wk =   0.0020000
        k(  586) = (  -0.1327629  -0.5743439  -0.1442498), wk =   0.0020000
        k(  587) = (  -0.2063597  -0.5007470  -0.0721249), wk =   0.0020000
        k(  588) = (  -0.2799566  -0.4271502   0.0000000), wk =   0.0020000
        k(  589) = (  -0.3535534  -0.3535534   0.0721249), wk =   0.0020000
        k(  590) = (  -0.4271502  -0.2799566   0.1442498), wk =   0.0020000
        k(  591) = (  -0.4271502  -0.2799566   0.2884996), wk =   0.0020000
        k(  592) = (  -0.5007470  -0.2063597   0.3606245), wk =   0.0020000
        k(  593) = (  -0.5743439  -0.1327629   0.4327494), wk =   0.0020000
        k(  594) = (  -0.6479407  -0.0591661   0.5048742), wk =   0.0020000
        k(  595) = (  -0.7215375   0.0144308   0.5769991), wk =   0.0020000
        k(  596) = (  -0.0591661  -0.6479407  -0.0721249), wk =   0.0020000
        k(  597) = (  -0.1327629  -0.5743439   0.0000000), wk =   0.0020000
        k(  598) = (  -0.2063597  -0.5007470   0.0721249), wk =   0.0020000
        k(  599) = (  -0.2799566  -0.4271502   0.1442498), wk =   0.0020000
        k(  600) = (  -0.3535534  -0.3535534   0.2163747), wk =   0.0020000
        k(  601) = (  -0.2828427  -0.2828427   0.2884996), wk =   0.0020000
        k(  602) = (  -0.3564395  -0.2092459   0.3606245), wk =   0.0020000
        k(  603) = (  -0.4300364  -0.1356491   0.4327494), wk =   0.0020000
        k(  604) = (  -0.5036332  -0.0620522   0.5048742), wk =   0.0020000
        k(  605) = (  -0.5772300   0.0115446   0.5769991), wk =   0.0020000
        k(  606) = (   0.0851414  -0.6508269  -0.0721249), wk =   0.0020000
        k(  607) = (   0.0115446  -0.5772300   0.0000000), wk =   0.0020000
        k(  608) = (  -0.0620522  -0.5036332   0.0721249), wk =   0.0020000
        k(  609) = (  -0.1356491  -0.4300364   0.1442498), wk =   0.0020000
        k(  610) = (  -0.2092459  -0.3564395   0.2163747), wk =   0.0020000
        k(  611) = (  -0.2092459  -0.3564395   0.3606245), wk =   0.0020000
        k(  612) = (  -0.2828427  -0.2828427   0.4327494), wk =   0.0020000
        k(  613) = (  -0.3564395  -0.2092459   0.5048742), wk =   0.0020000
        k(  614) = (  -0.4300364  -0.1356491   0.5769991), wk =   0.0020000
        k(  615) = (  -0.5036332  -0.0620522   0.6491240), wk =   0.0020000
        k(  616) = (   0.1587383  -0.7244237   0.0000000), wk =   0.0020000
        k(  617) = (   0.0851414  -0.6508269   0.0721249), wk =   0.0020000
        k(  618) = (   0.0115446  -0.5772300   0.1442498), wk =   0.0020000
        k(  619) = (  -0.0620522  -0.5036332   0.2163747), wk =   0.0020000
        k(  620) = (  -0.1356491  -0.4300364   0.2884996), wk =   0.0020000
        k(  621) = (  -0.1356491  -0.4300364   0.4327494), wk =   0.0020000
        k(  622) = (  -0.2092459  -0.3564395   0.5048742), wk =   0.0020000
        k(  623) = (  -0.2828427  -0.2828427   0.5769991), wk =   0.0020000
        k(  624) = (  -0.3564395  -0.2092459   0.6491240), wk =   0.0020000
        k(  625) = (  -0.4300364  -0.1356491   0.7212489), wk =   0.0020000
        k(  626) = (   0.2323351  -0.7980205   0.0721249), wk =   0.0020000
        k(  627) = (   0.1587383  -0.7244237   0.1442498), wk =   0.0020000
        k(  628) = (   0.0851414  -0.6508269   0.2163747), wk =   0.0020000
        k(  629) = (   0.0115446  -0.5772300   0.2884996), wk =   0.0020000
        k(  630) = (  -0.0620522  -0.5036332   0.3606245), wk =   0.0020000
        k(  631) = (  -0.0620522  -0.5036332   0.5048742), wk =   0.0020000
        k(  632) = (  -0.1356491  -0.4300364   0.5769991), wk =   0.0020000
        k(  633) = (  -0.2092459  -0.3564395   0.6491240), wk =   0.0020000
        k(  634) = (  -0.2828427  -0.2828427   0.7212489), wk =   0.0020000
        k(  635) = (  -0.3564395  -0.2092459   0.7933738), wk =   0.0020000
        k(  636) = (   0.3059319  -0.8716173   0.1442498), wk =   0.0020000
        k(  637) = (   0.2323351  -0.7980205   0.2163747), wk =   0.0020000
        k(  638) = (   0.1587383  -0.7244237   0.2884996), wk =   0.0020000
        k(  639) = (   0.0851414  -0.6508269   0.3606245), wk =   0.0020000
        k(  640) = (   0.0115446  -0.5772300   0.4327494), wk =   0.0020000
        k(  641) = (   0.0115446  -0.5772300   0.5769991), wk =   0.0020000
        k(  642) = (  -0.0620522  -0.5036332   0.6491240), wk =   0.0020000
        k(  643) = (  -0.1356491  -0.4300364   0.7212489), wk =   0.0020000
        k(  644) = (  -0.2092459  -0.3564395   0.7933738), wk =   0.0020000
        k(  645) = (  -0.2828427  -0.2828427   0.8654987), wk =   0.0020000
        k(  646) = (   0.3795287  -0.9452142   0.2163747), wk =   0.0020000
        k(  647) = (   0.3059319  -0.8716173   0.2884996), wk =   0.0020000
        k(  648) = (   0.2323351  -0.7980205   0.3606245), wk =   0.0020000
        k(  649) = (   0.1587383  -0.7244237   0.4327494), wk =   0.0020000
        k(  650) = (   0.0851414  -0.6508269   0.5048742), wk =   0.0020000
        k(  651) = (  -0.6508269   0.0851414  -0.0721249), wk =   0.0020000
        k(  652) = (  -0.7244237   0.1587383   0.0000000), wk =   0.0020000
        k(  653) = (  -0.7980205   0.2323351   0.0721249), wk =   0.0020000
        k(  654) = (  -0.8716173   0.3059319   0.1442498), wk =   0.0020000
        k(  655) = (  -0.9452142   0.3795287   0.2163747), wk =   0.0020000
        k(  656) = (  -0.2828427  -0.2828427  -0.4327494), wk =   0.0020000
        k(  657) = (  -0.3564395  -0.2092459  -0.3606245), wk =   0.0020000
        k(  658) = (  -0.4300364  -0.1356491  -0.2884996), wk =   0.0020000
        k(  659) = (  -0.5036332  -0.0620522  -0.2163747), wk =   0.0020000
        k(  660) = (  -0.5772300   0.0115446  -0.1442498), wk =   0.0020000
        k(  661) = (  -0.5772300   0.0115446   0.0000000), wk =   0.0020000
        k(  662) = (  -0.6508269   0.0851414   0.0721249), wk =   0.0020000
        k(  663) = (  -0.7244237   0.1587383   0.1442498), wk =   0.0020000
        k(  664) = (  -0.7980205   0.2323351   0.2163747), wk =   0.0020000
        k(  665) = (  -0.8716173   0.3059319   0.2884996), wk =   0.0020000
        k(  666) = (  -0.2092459  -0.3564395  -0.3606245), wk =   0.0020000
        k(  667) = (  -0.2828427  -0.2828427  -0.2884996), wk =   0.0020000
        k(  668) = (  -0.3564395  -0.2092459  -0.2163747), wk =   0.0020000
        k(  669) = (  -0.4300364  -0.1356491  -0.1442498), wk =   0.0020000
        k(  670) = (  -0.5036332  -0.0620522  -0.0721249), wk =   0.0020000
        k(  671) = (  -0.5036332  -0.0620522   0.0721249), wk =   0.0020000
        k(  672) = (  -0.5772300   0.0115446   0.1442498), wk =   0.0020000
        k(  673) = (  -0.6508269   0.0851414   0.2163747), wk =   0.0020000
        k(  674) = (  -0.7244237   0.1587383   0.2884996), wk =   0.0020000
        k(  675) = (  -0.7980205   0.2323351   0.3606245), wk =   0.0020000
        k(  676) = (  -0.1356491  -0.4300364  -0.2884996), wk =   0.0020000
        k(  677) = (  -0.2092459  -0.3564395  -0.2163747), wk =   0.0020000
        k(  678) = (  -0.2828427  -0.2828427  -0.1442498), wk =   0.0020000
        k(  679) = (  -0.3564395  -0.2092459  -0.0721249), wk =   0.0020000
        k(  680) = (  -0.4300364  -0.1356491   0.0000000), wk =   0.0020000
        k(  681) = (  -0.4300364  -0.1356491   0.1442498), wk =   0.0020000
        k(  682) = (  -0.5036332  -0.0620522   0.2163747), wk =   0.0020000
        k(  683) = (  -0.5772300   0.0115446   0.2884996), wk =   0.0020000
        k(  684) = (  -0.6508269   0.0851414   0.3606245), wk =   0.0020000
        k(  685) = (  -0.7244237   0.1587383   0.4327494), wk =   0.0020000
        k(  686) = (  -0.0620522  -0.5036332  -0.2163747), wk =   0.0020000
        k(  687) = (  -0.1356491  -0.4300364  -0.1442498), wk =   0.0020000
        k(  688) = (  -0.2092459  -0.3564395  -0.0721249), wk =   0.0020000
        k(  689) = (  -0.2828427  -0.2828427   0.0000000), wk =   0.0020000
        k(  690) = (  -0.3564395  -0.2092459   0.0721249), wk =   0.0020000
        k(  691) = (  -0.3564395  -0.2092459   0.2163747), wk =   0.0020000
        k(  692) = (  -0.4300364  -0.1356491   0.2884996), wk =   0.0020000
        k(  693) = (  -0.5036332  -0.0620522   0.3606245), wk =   0.0020000
        k(  694) = (  -0.5772300   0.0115446   0.4327494), wk =   0.0020000
        k(  695) = (  -0.6508269   0.0851414   0.5048742), wk =   0.0020000
        k(  696) = (   0.0115446  -0.5772300  -0.1442498), wk =   0.0020000
        k(  697) = (  -0.0620522  -0.5036332  -0.0721249), wk =   0.0020000
        k(  698) = (  -0.1356491  -0.4300364   0.0000000), wk =   0.0020000
        k(  699) = (  -0.2092459  -0.3564395   0.0721249), wk =   0.0020000
        k(  700) = (  -0.2828427  -0.2828427   0.1442498), wk =   0.0020000
        k(  701) = (  -0.2121320  -0.2121320   0.2163747), wk =   0.0020000
        k(  702) = (  -0.2857289  -0.1385352   0.2884996), wk =   0.0020000
        k(  703) = (  -0.3593257  -0.0649384   0.3606245), wk =   0.0020000
        k(  704) = (  -0.4329225   0.0086585   0.4327494), wk =   0.0020000
        k(  705) = (  -0.5065193   0.0822553   0.5048742), wk =   0.0020000
        k(  706) = (   0.1558521  -0.5801162  -0.1442498), wk =   0.0020000
        k(  707) = (   0.0822553  -0.5065193  -0.0721249), wk =   0.0020000
        k(  708) = (   0.0086585  -0.4329225   0.0000000), wk =   0.0020000
        k(  709) = (  -0.0649384  -0.3593257   0.0721249), wk =   0.0020000
        k(  710) = (  -0.1385352  -0.2857289   0.1442498), wk =   0.0020000
        k(  711) = (  -0.1385352  -0.2857289   0.2884996), wk =   0.0020000
        k(  712) = (  -0.2121320  -0.2121320   0.3606245), wk =   0.0020000
        k(  713) = (  -0.2857289  -0.1385352   0.4327494), wk =   0.0020000
        k(  714) = (  -0.3593257  -0.0649384   0.5048742), wk =   0.0020000
        k(  715) = (  -0.4329225   0.0086585   0.5769991), wk =   0.0020000
        k(  716) = (   0.2294489  -0.6537130  -0.0721249), wk =   0.0020000
        k(  717) = (   0.1558521  -0.5801162   0.0000000), wk =   0.0020000
        k(  718) = (   0.0822553  -0.5065193   0.0721249), wk =   0.0020000
        k(  719) = (   0.0086585  -0.4329225   0.1442498), wk =   0.0020000
        k(  720) = (  -0.0649384  -0.3593257   0.2163747), wk =   0.0020000
        k(  721) = (  -0.0649384  -0.3593257   0.3606245), wk =   0.0020000
        k(  722) = (  -0.1385352  -0.2857289   0.4327494), wk =   0.0020000
        k(  723) = (  -0.2121320  -0.2121320   0.5048742), wk =   0.0020000
        k(  724) = (  -0.2857289  -0.1385352   0.5769991), wk =   0.0020000
        k(  725) = (  -0.3593257  -0.0649384   0.6491240), wk =   0.0020000
        k(  726) = (   0.3030458  -0.7273098   0.0000000), wk =   0.0020000
        k(  727) = (   0.2294489  -0.6537130   0.0721249), wk =   0.0020000
        k(  728) = (   0.1558521  -0.5801162   0.1442498), wk =   0.0020000
        k(  729) = (   0.0822553  -0.5065193   0.2163747), wk =   0.0020000
        k(  730) = (   0.0086585  -0.4329225   0.2884996), wk =   0.0020000
        k(  731) = (   0.0086585  -0.4329225   0.4327494), wk =   0.0020000
        k(  732) = (  -0.0649384  -0.3593257   0.5048742), wk =   0.0020000
        k(  733) = (  -0.1385352  -0.2857289   0.5769991), wk =   0.0020000
        k(  734) = (  -0.2121320  -0.2121320   0.6491240), wk =   0.0020000
        k(  735) = (  -0.2857289  -0.1385352   0.7212489), wk =   0.0020000
        k(  736) = (   0.3766426  -0.8009067   0.0721249), wk =   0.0020000
        k(  737) = (   0.3030458  -0.7273098   0.1442498), wk =   0.0020000
        k(  738) = (   0.2294489  -0.6537130   0.2163747), wk =   0.0020000
        k(  739) = (   0.1558521  -0.5801162   0.2884996), wk =   0.0020000
        k(  740) = (   0.0822553  -0.5065193   0.3606245), wk =   0.0020000
        k(  741) = (   0.0822553  -0.5065193   0.5048742), wk =   0.0020000
        k(  742) = (   0.0086585  -0.4329225   0.5769991), wk =   0.0020000
        k(  743) = (  -0.0649384  -0.3593257   0.6491240), wk =   0.0020000
        k(  744) = (  -0.1385352  -0.2857289   0.7212489), wk =   0.0020000
        k(  745) = (  -0.2121320  -0.2121320   0.7933738), wk =   0.0020000
        k(  746) = (   0.4502394  -0.8745035   0.1442498), wk =   0.0020000
        k(  747) = (   0.3766426  -0.8009067   0.2163747), wk =   0.0020000
        k(  748) = (   0.3030458  -0.7273098   0.2884996), wk =   0.0020000
        k(  749) = (   0.2294489  -0.6537130   0.3606245), wk =   0.0020000
        k(  750) = (   0.1558521  -0.5801162   0.4327494), wk =   0.0020000
        k(  751) = (  -0.5801162   0.1558521  -0.1442498), wk =   0.0020000
        k(  752) = (  -0.6537130   0.2294489  -0.0721249), wk =   0.0020000
        k(  753) = (  -0.7273098   0.3030458   0.0000000), wk =   0.0020000
        k(  754) = (  -0.8009067   0.3766426   0.0721249), wk =   0.0020000
        k(  755) = (  -0.8745035   0.4502394   0.1442498), wk =   0.0020000
        k(  756) = (  -0.2121320  -0.2121320  -0.5048742), wk =   0.0020000
        k(  757) = (  -0.2857289  -0.1385352  -0.4327494), wk =   0.0020000
        k(  758) = (  -0.3593257  -0.0649384  -0.3606245), wk =   0.0020000
        k(  759) = (  -0.4329225   0.0086585  -0.2884996), wk =   0.0020000
        k(  760) = (  -0.5065193   0.0822553  -0.2163747), wk =   0.0020000
        k(  761) = (  -0.5065193   0.0822553  -0.0721249), wk =   0.0020000
        k(  762) = (  -0.5801162   0.1558521   0.0000000), wk =   0.0020000
        k(  763) = (  -0.6537130   0.2294489   0.0721249), wk =   0.0020000
        k(  764) = (  -0.7273098   0.3030458   0.1442498), wk =   0.0020000
        k(  765) = (  -0.8009067   0.3766426   0.2163747), wk =   0.0020000
        k(  766) = (  -0.1385352  -0.2857289  -0.4327494), wk =   0.0020000
        k(  767) = (  -0.2121320  -0.2121320  -0.3606245), wk =   0.0020000
        k(  768) = (  -0.2857289  -0.1385352  -0.2884996), wk =   0.0020000
        k(  769) = (  -0.3593257  -0.0649384  -0.2163747), wk =   0.0020000
        k(  770) = (  -0.4329225   0.0086585  -0.1442498), wk =   0.0020000
        k(  771) = (  -0.4329225   0.0086585   0.0000000), wk =   0.0020000
        k(  772) = (  -0.5065193   0.0822553   0.0721249), wk =   0.0020000
        k(  773) = (  -0.5801162   0.1558521   0.1442498), wk =   0.0020000
        k(  774) = (  -0.6537130   0.2294489   0.2163747), wk =   0.0020000
        k(  775) = (  -0.7273098   0.3030458   0.2884996), wk =   0.0020000
        k(  776) = (  -0.0649384  -0.3593257  -0.3606245), wk =   0.0020000
        k(  777) = (  -0.1385352  -0.2857289  -0.2884996), wk =   0.0020000
        k(  778) = (  -0.2121320  -0.2121320  -0.2163747), wk =   0.0020000
        k(  779) = (  -0.2857289  -0.1385352  -0.1442498), wk =   0.0020000
        k(  780) = (  -0.3593257  -0.0649384  -0.0721249), wk =   0.0020000
        k(  781) = (  -0.3593257  -0.0649384   0.0721249), wk =   0.0020000
        k(  782) = (  -0.4329225   0.0086585   0.1442498), wk =   0.0020000
        k(  783) = (  -0.5065193   0.0822553   0.2163747), wk =   0.0020000
        k(  784) = (  -0.5801162   0.1558521   0.2884996), wk =   0.0020000
        k(  785) = (  -0.6537130   0.2294489   0.3606245), wk =   0.0020000
        k(  786) = (   0.0086585  -0.4329225  -0.2884996), wk =   0.0020000
        k(  787) = (  -0.0649384  -0.3593257  -0.2163747), wk =   0.0020000
        k(  788) = (  -0.1385352  -0.2857289  -0.1442498), wk =   0.0020000
        k(  789) = (  -0.2121320  -0.2121320  -0.0721249), wk =   0.0020000
        k(  790) = (  -0.2857289  -0.1385352   0.0000000), wk =   0.0020000
        k(  791) = (  -0.2857289  -0.1385352   0.1442498), wk =   0.0020000
        k(  792) = (  -0.3593257  -0.0649384   0.2163747), wk =   0.0020000
        k(  793) = (  -0.4329225   0.0086585   0.2884996), wk =   0.0020000
        k(  794) = (  -0.5065193   0.0822553   0.3606245), wk =   0.0020000
        k(  795) = (  -0.5801162   0.1558521   0.4327494), wk =   0.0020000
        k(  796) = (   0.0822553  -0.5065193  -0.2163747), wk =   0.0020000
        k(  797) = (   0.0086585  -0.4329225  -0.1442498), wk =   0.0020000
        k(  798) = (  -0.0649384  -0.3593257  -0.0721249), wk =   0.0020000
        k(  799) = (  -0.1385352  -0.2857289   0.0000000), wk =   0.0020000
        k(  800) = (  -0.2121320  -0.2121320   0.0721249), wk =   0.0020000
        k(  801) = (  -0.1414214  -0.1414214   0.1442498), wk =   0.0020000
        k(  802) = (  -0.2150182  -0.0678245   0.2163747), wk =   0.0020000
        k(  803) = (  -0.2886150   0.0057723   0.2884996), wk =   0.0020000
        k(  804) = (  -0.3622118   0.0793691   0.3606245), wk =   0.0020000
        k(  805) = (  -0.4358087   0.1529660   0.4327494), wk =   0.0020000
        k(  806) = (   0.2265628  -0.5094055  -0.2163747), wk =   0.0020000
        k(  807) = (   0.1529660  -0.4358087  -0.1442498), wk =   0.0020000
        k(  808) = (   0.0793691  -0.3622118  -0.0721249), wk =   0.0020000
        k(  809) = (   0.0057723  -0.2886150   0.0000000), wk =   0.0020000
        k(  810) = (  -0.0678245  -0.2150182   0.0721249), wk =   0.0020000
        k(  811) = (  -0.0678245  -0.2150182   0.2163747), wk =   0.0020000
        k(  812) = (  -0.1414214  -0.1414214   0.2884996), wk =   0.0020000
        k(  813) = (  -0.2150182  -0.0678245   0.3606245), wk =   0.0020000
        k(  814) = (  -0.2886150   0.0057723   0.4327494), wk =   0.0020000
        k(  815) = (  -0.3622118   0.0793691   0.5048742), wk =   0.0020000
        k(  816) = (   0.3001596  -0.5830023  -0.1442498), wk =   0.0020000
        k(  817) = (   0.2265628  -0.5094055  -0.0721249), wk =   0.0020000
        k(  818) = (   0.1529660  -0.4358087   0.0000000), wk =   0.0020000
        k(  819) = (   0.0793691  -0.3622118   0.0721249), wk =   0.0020000
        k(  820) = (   0.0057723  -0.2886150   0.1442498), wk =   0.0020000
        k(  821) = (   0.0057723  -0.2886150   0.2884996), wk =   0.0020000
        k(  822) = (  -0.0678245  -0.2150182   0.3606245), wk =   0.0020000
        k(  823) = (  -0.1414214  -0.1414214   0.4327494), wk =   0.0020000
        k(  824) = (  -0.2150182  -0.0678245   0.5048742), wk =   0.0020000
        k(  825) = (  -0.2886150   0.0057723   0.5769991), wk =   0.0020000
        k(  826) = (   0.3737564  -0.6565992  -0.0721249), wk =   0.0020000
        k(  827) = (   0.3001596  -0.5830023   0.0000000), wk =   0.0020000
        k(  828) = (   0.2265628  -0.5094055   0.0721249), wk =   0.0020000
        k(  829) = (   0.1529660  -0.4358087   0.1442498), wk =   0.0020000
        k(  830) = (   0.0793691  -0.3622118   0.2163747), wk =   0.0020000
        k(  831) = (   0.0793691  -0.3622118   0.3606245), wk =   0.0020000
        k(  832) = (   0.0057723  -0.2886150   0.4327494), wk =   0.0020000
        k(  833) = (  -0.0678245  -0.2150182   0.5048742), wk =   0.0020000
        k(  834) = (  -0.1414214  -0.1414214   0.5769991), wk =   0.0020000
        k(  835) = (  -0.2150182  -0.0678245   0.6491240), wk =   0.0020000
        k(  836) = (   0.4473533  -0.7301960   0.0000000), wk =   0.0020000
        k(  837) = (   0.3737564  -0.6565992   0.0721249), wk =   0.0020000
        k(  838) = (   0.3001596  -0.5830023   0.1442498), wk =   0.0020000
        k(  839) = (   0.2265628  -0.5094055   0.2163747), wk =   0.0020000
        k(  840) = (   0.1529660  -0.4358087   0.2884996), wk =   0.0020000
        k(  841) = (   0.1529660  -0.4358087   0.4327494), wk =   0.0020000
        k(  842) = (   0.0793691  -0.3622118   0.5048742), wk =   0.0020000
        k(  843) = (   0.0057723  -0.2886150   0.5769991), wk =   0.0020000
        k(  844) = (  -0.0678245  -0.2150182   0.6491240), wk =   0.0020000
        k(  845) = (  -0.1414214  -0.1414214   0.7212489), wk =   0.0020000
        k(  846) = (   0.5209501  -0.8037928   0.0721249), wk =   0.0020000
        k(  847) = (   0.4473533  -0.7301960   0.1442498), wk =   0.0020000
        k(  848) = (   0.3737564  -0.6565992   0.2163747), wk =   0.0020000
        k(  849) = (   0.3001596  -0.5830023   0.2884996), wk =   0.0020000
        k(  850) = (   0.2265628  -0.5094055   0.3606245), wk =   0.0020000
        k(  851) = (  -0.5094055   0.2265628  -0.2163747), wk =   0.0020000
        k(  852) = (  -0.5830023   0.3001596  -0.1442498), wk =   0.0020000
        k(  853) = (  -0.6565992   0.3737564  -0.0721249), wk =   0.0020000
        k(  854) = (  -0.7301960   0.4473533   0.0000000), wk =   0.0020000
        k(  855) = (  -0.8037928   0.5209501   0.0721249), wk =   0.0020000
        k(  856) = (  -0.1414214  -0.1414214  -0.5769991), wk =   0.0020000
        k(  857) = (  -0.2150182  -0.0678245  -0.5048742), wk =   0.0020000
        k(  858) = (  -0.2886150   0.0057723  -0.4327494), wk =   0.0020000
        k(  859) = (  -0.3622118   0.0793691  -0.3606245), wk =   0.0020000
        k(  860) = (  -0.4358087   0.1529660  -0.2884996), wk =   0.0020000
        k(  861) = (  -0.4358087   0.1529660  -0.1442498), wk =   0.0020000
        k(  862) = (  -0.5094055   0.2265628  -0.0721249), wk =   0.0020000
        k(  863) = (  -0.5830023   0.3001596   0.0000000), wk =   0.0020000
        k(  864) = (  -0.6565992   0.3737564   0.0721249), wk =   0.0020000
        k(  865) = (  -0.7301960   0.4473533   0.1442498), wk =   0.0020000
        k(  866) = (  -0.0678245  -0.2150182  -0.5048742), wk =   0.0020000
        k(  867) = (  -0.1414214  -0.1414214  -0.4327494), wk =   0.0020000
        k(  868) = (  -0.2150182  -0.0678245  -0.3606245), wk =   0.0020000
        k(  869) = (  -0.2886150   0.0057723  -0.2884996), wk =   0.0020000
        k(  870) = (  -0.3622118   0.0793691  -0.2163747), wk =   0.0020000
        k(  871) = (  -0.3622118   0.0793691  -0.0721249), wk =   0.0020000
        k(  872) = (  -0.4358087   0.1529660   0.0000000), wk =   0.0020000
        k(  873) = (  -0.5094055   0.2265628   0.0721249), wk =   0.0020000
        k(  874) = (  -0.5830023   0.3001596   0.1442498), wk =   0.0020000
        k(  875) = (  -0.6565992   0.3737564   0.2163747), wk =   0.0020000
        k(  876) = (   0.0057723  -0.2886150  -0.4327494), wk =   0.0020000
        k(  877) = (  -0.0678245  -0.2150182  -0.3606245), wk =   0.0020000
        k(  878) = (  -0.1414214  -0.1414214  -0.2884996), wk =   0.0020000
        k(  879) = (  -0.2150182  -0.0678245  -0.2163747), wk =   0.0020000
        k(  880) = (  -0.2886150   0.0057723  -0.1442498), wk =   0.0020000
        k(  881) = (  -0.2886150   0.0057723   0.0000000), wk =   0.0020000
        k(  882) = (  -0.3622118   0.0793691   0.0721249), wk =   0.0020000
        k(  883) = (  -0.4358087   0.1529660   0.1442498), wk =   0.0020000
        k(  884) = (  -0.5094055   0.2265628   0.2163747), wk =   0.0020000
        k(  885) = (  -0.5830023   0.3001596   0.2884996), wk =   0.0020000
        k(  886) = (   0.0793691  -0.3622118  -0.3606245), wk =   0.0020000
        k(  887) = (   0.0057723  -0.2886150  -0.2884996), wk =   0.0020000
        k(  888) = (  -0.0678245  -0.2150182  -0.2163747), wk =   0.0020000
        k(  889) = (  -0.1414214  -0.1414214  -0.1442498), wk =   0.0020000
        k(  890) = (  -0.2150182  -0.0678245  -0.0721249), wk =   0.0020000
        k(  891) = (  -0.2150182  -0.0678245   0.0721249), wk =   0.0020000
        k(  892) = (  -0.2886150   0.0057723   0.1442498), wk =   0.0020000
        k(  893) = (  -0.3622118   0.0793691   0.2163747), wk =   0.0020000
        k(  894) = (  -0.4358087   0.1529660   0.2884996), wk =   0.0020000
        k(  895) = (  -0.5094055   0.2265628   0.3606245), wk =   0.0020000
        k(  896) = (   0.1529660  -0.4358087  -0.2884996), wk =   0.0020000
        k(  897) = (   0.0793691  -0.3622118  -0.2163747), wk =   0.0020000
        k(  898) = (   0.0057723  -0.2886150  -0.1442498), wk =   0.0020000
        k(  899) = (  -0.0678245  -0.2150182  -0.0721249), wk =   0.0020000
        k(  900) = (  -0.1414214  -0.1414214   0.0000000), wk =   0.0020000
        k(  901) = (  -0.0707107  -0.0707107   0.0721249), wk =   0.0020000
        k(  902) = (  -0.1443075   0.0028862   0.1442498), wk =   0.0020000
        k(  903) = (  -0.2179043   0.0764830   0.2163747), wk =   0.0020000
        k(  904) = (  -0.2915012   0.1500798   0.2884996), wk =   0.0020000
        k(  905) = (  -0.3650980   0.2236766   0.3606245), wk =   0.0020000
        k(  906) = (   0.2972735  -0.4386948  -0.2884996), wk =   0.0020000
        k(  907) = (   0.2236766  -0.3650980  -0.2163747), wk =   0.0020000
        k(  908) = (   0.1500798  -0.2915012  -0.1442498), wk =   0.0020000
        k(  909) = (   0.0764830  -0.2179043  -0.0721249), wk =   0.0020000
        k(  910) = (   0.0028862  -0.1443075   0.0000000), wk =   0.0020000
        k(  911) = (   0.0028862  -0.1443075   0.1442498), wk =   0.0020000
        k(  912) = (  -0.0707107  -0.0707107   0.2163747), wk =   0.0020000
        k(  913) = (  -0.1443075   0.0028862   0.2884996), wk =   0.0020000
        k(  914) = (  -0.2179043   0.0764830   0.3606245), wk =   0.0020000
        k(  915) = (  -0.2915012   0.1500798   0.4327494), wk =   0.0020000
        k(  916) = (   0.3708703  -0.5122916  -0.2163747), wk =   0.0020000
        k(  917) = (   0.2972735  -0.4386948  -0.1442498), wk =   0.0020000
        k(  918) = (   0.2236766  -0.3650980  -0.0721249), wk =   0.0020000
        k(  919) = (   0.1500798  -0.2915012   0.0000000), wk =   0.0020000
        k(  920) = (   0.0764830  -0.2179043   0.0721249), wk =   0.0020000
        k(  921) = (   0.0764830  -0.2179043   0.2163747), wk =   0.0020000
        k(  922) = (   0.0028862  -0.1443075   0.2884996), wk =   0.0020000
        k(  923) = (  -0.0707107  -0.0707107   0.3606245), wk =   0.0020000
        k(  924) = (  -0.1443075   0.0028862   0.4327494), wk =   0.0020000
        k(  925) = (  -0.2179043   0.0764830   0.5048742), wk =   0.0020000
        k(  926) = (   0.4444671  -0.5858885  -0.1442498), wk =   0.0020000
        k(  927) = (   0.3708703  -0.5122916  -0.0721249), wk =   0.0020000
        k(  928) = (   0.2972735  -0.4386948   0.0000000), wk =   0.0020000
        k(  929) = (   0.2236766  -0.3650980   0.0721249), wk =   0.0020000
        k(  930) = (   0.1500798  -0.2915012   0.1442498), wk =   0.0020000
        k(  931) = (   0.1500798  -0.2915012   0.2884996), wk =   0.0020000
        k(  932) = (   0.0764830  -0.2179043   0.3606245), wk =   0.0020000
        k(  933) = (   0.0028862  -0.1443075   0.4327494), wk =   0.0020000
        k(  934) = (  -0.0707107  -0.0707107   0.5048742), wk =   0.0020000
        k(  935) = (  -0.1443075   0.0028862   0.5769991), wk =   0.0020000
        k(  936) = (   0.5180639  -0.6594853  -0.0721249), wk =   0.0020000
        k(  937) = (   0.4444671  -0.5858885   0.0000000), wk =   0.0020000
        k(  938) = (   0.3708703  -0.5122916   0.0721249), wk =   0.0020000
        k(  939) = (   0.2972735  -0.4386948   0.1442498), wk =   0.0020000
        k(  940) = (   0.2236766  -0.3650980   0.2163747), wk =   0.0020000
        k(  941) = (   0.2236766  -0.3650980   0.3606245), wk =   0.0020000
        k(  942) = (   0.1500798  -0.2915012   0.4327494), wk =   0.0020000
        k(  943) = (   0.0764830  -0.2179043   0.5048742), wk =   0.0020000
        k(  944) = (   0.0028862  -0.1443075   0.5769991), wk =   0.0020000
        k(  945) = (  -0.0707107  -0.0707107   0.6491240), wk =   0.0020000
        k(  946) = (   0.5916608  -0.7330821   0.0000000), wk =   0.0020000
        k(  947) = (   0.5180639  -0.6594853   0.0721249), wk =   0.0020000
        k(  948) = (   0.4444671  -0.5858885   0.1442498), wk =   0.0020000
        k(  949) = (   0.3708703  -0.5122916   0.2163747), wk =   0.0020000
        k(  950) = (   0.2972735  -0.4386948   0.2884996), wk =   0.0020000
        k(  951) = (  -0.4386948   0.2972735  -0.2884996), wk =   0.0020000
        k(  952) = (  -0.5122916   0.3708703  -0.2163747), wk =   0.0020000
        k(  953) = (  -0.5858885   0.4444671  -0.1442498), wk =   0.0020000
        k(  954) = (  -0.6594853   0.5180639  -0.0721249), wk =   0.0020000
        k(  955) = (  -0.7330821   0.5916608   0.0000000), wk =   0.0020000
        k(  956) = (  -0.0707107  -0.0707107  -0.6491240), wk =   0.0020000
        k(  957) = (  -0.1443075   0.0028862  -0.5769991), wk =   0.0020000
        k(  958) = (  -0.2179043   0.0764830  -0.5048742), wk =   0.0020000
        k(  959) = (  -0.2915012   0.1500798  -0.4327494), wk =   0.0020000
        k(  960) = (  -0.3650980   0.2236766  -0.3606245), wk =   0.0020000
        k(  961) = (  -0.3650980   0.2236766  -0.2163747), wk =   0.0020000
        k(  962) = (  -0.4386948   0.2972735  -0.1442498), wk =   0.0020000
        k(  963) = (  -0.5122916   0.3708703  -0.0721249), wk =   0.0020000
        k(  964) = (  -0.5858885   0.4444671   0.0000000), wk =   0.0020000
        k(  965) = (  -0.6594853   0.5180639   0.0721249), wk =   0.0020000
        k(  966) = (   0.0028862  -0.1443075  -0.5769991), wk =   0.0020000
        k(  967) = (  -0.0707107  -0.0707107  -0.5048742), wk =   0.0020000
        k(  968) = (  -0.1443075   0.0028862  -0.4327494), wk =   0.0020000
        k(  969) = (  -0.2179043   0.0764830  -0.3606245), wk =   0.0020000
[...]
     8.1278   9.5581  10.9126  12.7584  13.1442  15.7289  17.6409  18.3081
    19.4402  21.0407  21.3095  22.3913  23.1795  24.5592  25.9478  28.4638
    29.2807  29.6036  31.5382  32.4964  33.2848  33.9167  34.9754  35.6650
    36.7309

     occupation numbers 
     1.0000   1.0000   1.0000   1.0000   1.0000   1.0000   1.0000   1.0000
     0.0000   0.0000   0.0000   0.0000   0.0000   0.0000   0.0000   0.0000
     0.0000   0.0000   0.0000   0.0000   0.0000   0.0000   0.0000   0.0000
     0.0000   0.0000   0.0000   0.0000   0.0000   0.0000   0.0000   0.0000
     0.0000

          k =-0.0707-0.0707-0.3606 (  1544 PWs)   bands (ev):

   -70.4175 -37.3833 -37.3824 -37.3820  -7.8427   1.0429   2.3414   2.5443
     8.1918   9.5726  10.8798  12.3233  12.6713  14.8740  17.1750  18.7735
    19.4983  20.2072  21.7391  21.8323  24.0077  24.6721  25.6598  27.2474
    30.2443  30.9250  31.6255  33.0371  34.1480  34.3515  35.7035  35.9017
    37.5201

     occupation numbers 
     1.0000   1.0000   1.0000   1.0000   1.0000   1.0000   1.0000   1.0000
     0.0000   0.0000   0.0000   0.0000   0.0000   0.0000   0.0000   0.0000
     0.0000   0.0000   0.0000   0.0000   0.0000   0.0000   0.0000   0.0000
     0.0000   0.0000   0.0000   0.0000   0.0000   0.0000   0.0000   0.0000
     0.0000

          k =-0.1443 0.0029-0.2885 (  1552 PWs)   bands (ev):

   -70.4175 -37.3830 -37.3822 -37.3819  -7.9444   1.2940   2.4073   2.7621
     8.2103  10.0146  10.8218  11.7483  12.2874  14.3870  16.9088  17.7156
    19.6472  20.2066  21.4072  23.2964  24.4201  24.8351  26.0443  26.7787
    29.4478  31.0254  32.3911  33.4846  34.2929  35.0268  36.1916  36.7930
    37.5916

     occupation numbers 
     1.0000   1.0000   1.0000   1.0000   1.0000   1.0000   1.0000   1.0000
     0.0000   0.0000   0.0000   0.0000   0.0000   0.0000   0.0000   0.0000
     0.0000   0.0000   0.0000   0.0000   0.0000   0.0000   0.0000   0.0000
     0.0000   0.0000   0.0000   0.0000   0.0000   0.0000   0.0000   0.0000
     0.0000

          k =-0.2179 0.0765-0.2164 (  1546 PWs)   bands (ev):

   -70.4175 -37.3830 -37.3822 -37.3819  -7.9555   1.2394   2.4766   2.8799
     8.0516  10.4914  10.8929  11.2684  12.4519  14.0073  15.8293  18.4490
    19.7884  20.6913  21.2731  23.3653  24.2835  24.8560  26.1054  27.5195
    29.4654  30.5643  32.4167  33.7536  33.9986  34.9292  35.5734  37.3805
    37.5403

     occupation numbers 
     1.0000   1.0000   1.0000   1.0000   1.0000   1.0000   1.0000   1.0000
     0.0000   0.0000   0.0000   0.0000   0.0000   0.0000   0.0000   0.0000
     0.0000   0.0000   0.0000   0.0000   0.0000   0.0000   0.0000   0.0000
     0.0000   0.0000   0.0000   0.0000   0.0000   0.0000   0.0000   0.0000
     0.0000

          k =-0.2179 0.0765-0.0721 (  1544 PWs)   bands (ev):

   -70.4175 -37.3825 -37.3820 -37.3819  -8.0820   1.8159   2.7291   2.7884
     7.5874  10.2359  11.1594  11.4645  12.2087  13.8305  16.1998  18.0374
    18.4457  19.0377  22.9072  23.6941  24.2587  25.5399  26.5254  26.9597
    29.9325  30.2589  31.2025  34.5807  35.0278  35.8715  36.3142  37.2684
    37.8208

     occupation numbers 
     1.0000   1.0000   1.0000   1.0000   1.0000   1.0000   1.0000   1.0000
     0.0000   0.0000   0.0000   0.0000   0.0000   0.0000   0.0000   0.0000
     0.0000   0.0000   0.0000   0.0000   0.0000   0.0000   0.0000   0.0000
     0.0000   0.0000   0.0000   0.0000   0.0000   0.0000   0.0000   0.0000
     0.0000

          k =-0.2915 0.1501 0.0000 (  1547 PWs)   bands (ev):

   -70.4175 -37.3830 -37.3822 -37.3821  -7.9256   1.2832   2.4360   2.7249
     8.1418   9.9746  10.8230  11.6141  12.2408  14.4056  16.8869  17.6727
    19.9763  20.3656  21.9600  23.2890  24.4831  24.9046  25.8558  26.3638
    29.3616  31.0029  32.2646  33.6702  34.6860  35.0544  35.6502  36.6826
    37.8294

     occupation numbers 
     1.0000   1.0000   1.0000   1.0000   1.0000   1.0000   1.0000   1.0000
     0.0000   0.0000   0.0000   0.0000   0.0000   0.0000   0.0000   0.0000
     0.0000   0.0000   0.0000   0.0000   0.0000   0.0000   0.0000   0.0000
     0.0000   0.0000   0.0000   0.0000   0.0000   0.0000   0.0000   0.0000
     0.0000

          k =-0.3651 0.2237 0.0721 (  1547 PWs)   bands (ev):

   -70.4174 -37.3837 -37.3824 -37.3822  -7.7213   0.6708   2.1527   2.6107
     8.5972   9.8712  10.5038  11.5577  12.8351  15.6356  16.6502  18.5596
    19.9010  20.9035  22.0279  22.9512  23.6419  25.2340  25.9371  27.5780
    29.1462  30.4464  31.8058  32.9869  33.3452  34.2658  35.0766  36.1777
    36.3535

     occupation numbers 
     1.0000   1.0000   1.0000   1.0000   1.0000   1.0000   1.0000   1.0000
     0.0000   0.0000   0.0000   0.0000   0.0000   0.0000   0.0000   0.0000
     0.0000   0.0000   0.0000   0.0000   0.0000   0.0000   0.0000   0.0000
     0.0000   0.0000   0.0000   0.0000   0.0000   0.0000   0.0000   0.0000
     0.0000

          k =-0.4387 0.2973 0.1442 (  1551 PWs)   bands (ev):

   -70.4174 -37.3842 -37.3826 -37.3824  -7.5456   0.2046   1.9773   2.4754
     8.7487   9.4577  11.2156  11.3213  13.9255  16.1946  17.0875  17.5223
    19.1532  21.1880  21.7676  24.1391  24.2613  26.0740  26.3686  28.0518
    29.0859  29.8593  30.5091  31.6723  33.0148  33.5302  34.3701  35.2009
    35.7845

     occupation numbers 
     1.0000   1.0000   1.0000   1.0000   1.0000   1.0000   1.0000   1.0000
     0.0000   0.0000   0.0000   0.0000   0.0000   0.0000   0.0000   0.0000
     0.0000   0.0000   0.0000   0.0000   0.0000   0.0000   0.0000   0.0000
     0.0000   0.0000   0.0000   0.0000   0.0000   0.0000   0.0000   0.0000
     0.0000

          k =-0.5123 0.3709 0.2164 (  1554 PWs)   bands (ev):

   -70.4174 -37.3844 -37.3827 -37.3824  -7.4801   0.0460   1.9039   2.4154
     8.7815   9.2820  11.1927  11.8986  14.8140  15.5661  16.8905  17.3263
    19.0048  20.3157  23.3910  23.7521  25.4426  26.0659  26.9491  27.4910
    28.8603  28.9646  30.7811  31.7886  32.5013  33.4663  33.8059  34.4941
    35.6137

     occupation numbers 
     1.0000   1.0000   1.0000   1.0000   1.0000   1.0000   1.0000   1.0000
     0.0000   0.0000   0.0000   0.0000   0.0000   0.0000   0.0000   0.0000
     0.0000   0.0000   0.0000   0.0000   0.0000   0.0000   0.0000   0.0000
     0.0000   0.0000   0.0000   0.0000   0.0000   0.0000   0.0000   0.0000
     0.0000

          k = 0.1501-0.2915-0.4327 (  1550 PWs)   bands (ev):

   -70.4174 -37.3841 -37.3827 -37.3823  -7.5597   0.2479   1.9324   2.4744
     8.7000   9.5555  11.2592  11.5483  14.0628  16.1018  16.5973  17.2649
    19.0474  21.6319  22.0912  23.8848  24.2172  25.9999  26.4580  27.7590
    29.0356  29.7178  30.6604  31.6456  32.8462  33.8633  34.1017  35.3293
    36.0906

     occupation numbers 
     1.0000   1.0000   1.0000   1.0000   1.0000   1.0000   1.0000   1.0000
     0.0000   0.0000   0.0000   0.0000   0.0000   0.0000   0.0000   0.0000
     0.0000   0.0000   0.0000   0.0000   0.0000   0.0000   0.0000   0.0000
     0.0000   0.0000   0.0000   0.0000   0.0000   0.0000   0.0000   0.0000
     0.0000

          k = 0.0765-0.2179-0.3606 (  1559 PWs)   bands (ev):

   -70.4174 -37.3835 -37.3825 -37.3821  -7.7421   0.7262   2.0921   2.6187
     8.5926  10.0259  10.6241  11.6168  12.9763  15.4129  16.5633  18.2795
    19.7219  20.8035  22.0016  22.7078  24.0771  25.2491  26.1650  27.4373
    29.0054  30.2478  31.7773  32.8453  33.4140  34.1583  35.3219  36.1197
    36.8892

     occupation numbers 
     1.0000   1.0000   1.0000   1.0000   1.0000   1.0000   1.0000   1.0000
     0.0000   0.0000   0.0000   0.0000   0.0000   0.0000   0.0000   0.0000
     0.0000   0.0000   0.0000   0.0000   0.0000   0.0000   0.0000   0.0000
     0.0000   0.0000   0.0000   0.0000   0.0000   0.0000   0.0000   0.0000
     0.0000

          k = 0.0029-0.1443-0.2885 (  1552 PWs)   bands (ev):

   -70.4175 -37.3830 -37.3822 -37.3819  -7.9444   1.2940   2.4073   2.7621
     8.2103  10.0146  10.8218  11.7483  12.2874  14.3870  16.9088  17.7156
    19.6472  20.2066  21.4072  23.2964  24.4201  24.8351  26.0443  26.7787
    29.4478  31.0254  32.3911  33.4846  34.2929  35.0268  36.1916  36.7930
    37.5916

     occupation numbers 
     1.0000   1.0000   1.0000   1.0000   1.0000   1.0000   1.0000   1.0000
     0.0000   0.0000   0.0000   0.0000   0.0000   0.0000   0.0000   0.0000
     0.0000   0.0000   0.0000   0.0000   0.0000   0.0000   0.0000   0.0000
     0.0000   0.0000   0.0000   0.0000   0.0000   0.0000   0.0000   0.0000
     0.0000

          k =-0.0707-0.0707-0.2164 (  1542 PWs)   bands (ev):

   -70.4175 -37.3826 -37.3820 -37.3818  -8.0928   1.7660   2.7628   2.8321
     7.6290  10.1948  11.0687  11.6222  12.2162  13.9544  16.2729  18.0711
    18.2663  18.8452  22.8052  23.6842  23.8187  25.2053  26.8737  27.1575
    30.2125  30.7879  31.0286  34.5883  35.2426  35.6246  35.8567  37.4165
    38.1324

     occupation numbers 
     1.0000   1.0000   1.0000   1.0000   1.0000   1.0000   1.0000   1.0000
     0.0000   0.0000   0.0000   0.0000   0.0000   0.0000   0.0000   0.0000
     0.0000   0.0000   0.0000   0.0000   0.0000   0.0000   0.0000   0.0000
     0.0000   0.0000   0.0000   0.0000   0.0000   0.0000   0.0000   0.0000
     0.0000

          k =-0.1443 0.0029-0.1442 (  1540 PWs)   bands (ev):

   -70.4175 -37.3824 -37.3819 -37.3817  -8.1432   2.0070   2.7382   2.9688
     7.3546  10.4742  11.0276  11.3094  12.6221  13.5397  16.4086  17.1377
    18.2016  18.8969  22.1528  23.7011  25.0162  25.8592  26.7432  27.9024
    29.4692  30.1865  31.1673  34.3732  35.1940  35.5825  36.2766  37.8780
    38.1924

     occupation numbers 
     1.0000   1.0000   1.0000   1.0000   1.0000   1.0000   1.0000   1.0000
     0.0000   0.0000   0.0000   0.0000   0.0000   0.0000   0.0000   0.0000
     0.0000   0.0000   0.0000   0.0000   0.0000   0.0000   0.0000   0.0000
     0.0000   0.0000   0.0000   0.0000   0.0000   0.0000   0.0000   0.0000
     0.0000

          k =-0.1443 0.0029 0.0000 (  1518 PWs)   bands (ev):

   -70.4175 -37.3820 -37.3819 -37.3817  -8.2161   2.5026   2.8681   2.8816
     6.9322  10.4140  11.1480  11.2047  12.6819  13.8856  16.9080  17.0892
    17.1587  17.6216  21.4482  25.1180  25.4282  26.8144  27.3432  27.5772
    29.5762  29.8363  30.2594  34.2641  34.6991  35.5503  37.3909  37.9134
    38.4411

     occupation numbers 
     1.0000   1.0000   1.0000   1.0000   1.0000   1.0000   1.0000   1.0000
     0.0000   0.0000   0.0000   0.0000   0.0000   0.0000   0.0000   0.0000
     0.0000   0.0000   0.0000   0.0000   0.0000   0.0000   0.0000   0.0000
     0.0000   0.0000   0.0000   0.0000   0.0000   0.0000   0.0000   0.0000
     0.0000

          k =-0.2179 0.0765 0.0721 (  1544 PWs)   bands (ev):

   -70.4175 -37.3825 -37.3820 -37.3819  -8.0820   1.8159   2.7291   2.7884
     7.5874  10.2359  11.1594  11.4645  12.2087  13.8305  16.1998  18.0374
    18.4457  19.0377  22.9072  23.6941  24.2587  25.5399  26.5254  26.9597
    29.9325  30.2589  31.2025  34.5807  35.0278  35.8715  36.3142  37.2684
    37.8208

     occupation numbers 
     1.0000   1.0000   1.0000   1.0000   1.0000   1.0000   1.0000   1.0000
     0.0000   0.0000   0.0000   0.0000   0.0000   0.0000   0.0000   0.0000
     0.0000   0.0000   0.0000   0.0000   0.0000   0.0000   0.0000   0.0000
     0.0000   0.0000   0.0000   0.0000   0.0000   0.0000   0.0000   0.0000
     0.0000

          k =-0.2915 0.1501 0.1442 (  1550 PWs)   bands (ev):

   -70.4175 -37.3833 -37.3822 -37.3821  -7.8730   0.9530   2.6047   2.6653
     8.1205  10.2681  10.7202  11.3884  12.9066  14.2802  15.5814  19.5477
    19.8646  20.9564  21.6930  22.1731  23.6290  25.5922  26.4437  26.9755
    29.9979  30.3327  32.1496  33.2057  34.2987  34.7286  35.0702  36.9355
    37.1649

     occupation numbers 
     1.0000   1.0000   1.0000   1.0000   1.0000   1.0000   1.0000   1.0000
     0.0000   0.0000   0.0000   0.0000   0.0000   0.0000   0.0000   0.0000
     0.0000   0.0000   0.0000   0.0000   0.0000   0.0000   0.0000   0.0000
     0.0000   0.0000   0.0000   0.0000   0.0000   0.0000   0.0000   0.0000
     0.0000

          k =-0.3651 0.2237 0.2164 (  1547 PWs)   bands (ev):

   -70.4174 -37.3841 -37.3823 -37.3822  -7.6599   0.2584   2.4965   2.5432
     8.2619   9.9807  11.0155  11.2244  13.8714  15.3530  15.7482  18.7066
    19.3142  21.0644  22.3334  22.7069  23.8680  26.5345  27.1613  27.9649
    29.6456  29.8838  30.2542  32.4621  33.3986  33.7315  34.4529  35.8126
    36.4344

     occupation numbers 
     1.0000   1.0000   1.0000   1.0000   1.0000   1.0000   1.0000   1.0000
     0.0000   0.0000   0.0000   0.0000   0.0000   0.0000   0.0000   0.0000
     0.0000   0.0000   0.0000   0.0000   0.0000   0.0000   0.0000   0.0000
     0.0000   0.0000   0.0000   0.0000   0.0000   0.0000   0.0000   0.0000
     0.0000

          k =-0.4387 0.2973 0.2885 (  1548 PWs)   bands (ev):

   -70.4174 -37.3845 -37.3824 -37.3823  -7.5356  -0.0924   2.3614   2.5463
     8.2740   9.7811  10.7860  11.7511  14.8316  16.1224  16.4375  17.6537
    17.8488  19.4351  24.1134  24.6402  25.2203  26.5165  27.5176  27.9156
    28.7178  28.8472  30.2685  32.0218  32.3621  33.4685  34.0628  34.9601
    36.1330

     occupation numbers 
     1.0000   1.0000   1.0000   1.0000   1.0000   1.0000   1.0000   1.0000
     0.0000   0.0000   0.0000   0.0000   0.0000   0.0000   0.0000   0.0000
     0.0000   0.0000   0.0000   0.0000   0.0000   0.0000   0.0000   0.0000
     0.0000   0.0000   0.0000   0.0000   0.0000   0.0000   0.0000   0.0000
     0.0000

          k = 0.2237-0.3651-0.3606 (  1550 PWs)   bands (ev):

   -70.4174 -37.3844 -37.3824 -37.3822  -7.5659  -0.0075   2.2959   2.6231
     8.3117   9.8799  10.7458  11.7243  14.7571  15.5094  16.4974  16.9686
    19.1360  19.7831  23.1294  24.6951  24.7848  26.7834  27.4511  27.9360
    28.9916  29.2050  29.9561  31.9147  32.3679  33.8582  34.3398  34.9806
    36.1843

     occupation numbers 
     1.0000   1.0000   1.0000   1.0000   1.0000   1.0000   1.0000   1.0000
     0.0000   0.0000   0.0000   0.0000   0.0000   0.0000   0.0000   0.0000
     0.0000   0.0000   0.0000   0.0000   0.0000   0.0000   0.0000   0.0000
     0.0000   0.0000   0.0000   0.0000   0.0000   0.0000   0.0000   0.0000
     0.0000

          k = 0.1501-0.2915-0.2885 (  1547 PWs)   bands (ev):

   -70.4174 -37.3838 -37.3824 -37.3821  -7.7338   0.4845   2.3304   2.7480
     8.3249  10.2511  10.9294  11.1780  13.3692  15.0114  15.5700  18.4651
    20.5896  21.1125  21.5152  22.9145  23.3470  26.3016  26.7708  27.7879
    29.2599  30.4761  31.1067  32.5342  33.3473  33.8580  35.3953  35.7895
    36.2924

     occupation numbers 
     1.0000   1.0000   1.0000   1.0000   1.0000   1.0000   1.0000   1.0000
     0.0000   0.0000   0.0000   0.0000   0.0000   0.0000   0.0000   0.0000
     0.0000   0.0000   0.0000   0.0000   0.0000   0.0000   0.0000   0.0000
     0.0000   0.0000   0.0000   0.0000   0.0000   0.0000   0.0000   0.0000
     0.0000

          k = 0.0765-0.2179-0.2164 (  1546 PWs)   bands (ev):

   -70.4175 -37.3830 -37.3822 -37.3819  -7.9555   1.2394   2.4766   2.8799
     8.0516  10.4914  10.8929  11.2684  12.4519  14.0073  15.8293  18.4490
    19.7884  20.6913  21.2731  23.3653  24.2835  24.8560  26.1054  27.5195
    29.4654  30.5643  32.4167  33.7536  33.9986  34.9292  35.5734  37.3805
    37.5403

     occupation numbers 
     1.0000   1.0000   1.0000   1.0000   1.0000   1.0000   1.0000   1.0000
     0.0000   0.0000   0.0000   0.0000   0.0000   0.0000   0.0000   0.0000
     0.0000   0.0000   0.0000   0.0000   0.0000   0.0000   0.0000   0.0000
     0.0000   0.0000   0.0000   0.0000   0.0000   0.0000   0.0000   0.0000
     0.0000

          k = 0.0029-0.1443-0.1442 (  1540 PWs)   bands (ev):

   -70.4175 -37.3824 -37.3819 -37.3817  -8.1432   2.0070   2.7382   2.9688
     7.3546  10.4742  11.0276  11.3094  12.6221  13.5397  16.4086  17.1377
    18.2016  18.8969  22.1528  23.7011  25.0162  25.8592  26.7432  27.9024
    29.4692  30.1865  31.1673  34.3732  35.1940  35.5825  36.2766  37.8780
    38.1924

     occupation numbers 
     1.0000   1.0000   1.0000   1.0000   1.0000   1.0000   1.0000   1.0000
     0.0000   0.0000   0.0000   0.0000   0.0000   0.0000   0.0000   0.0000
     0.0000   0.0000   0.0000   0.0000   0.0000   0.0000   0.0000   0.0000
     0.0000   0.0000   0.0000   0.0000   0.0000   0.0000   0.0000   0.0000
     0.0000

          k =-0.0707-0.0707-0.0721 (  1527 PWs)   bands (ev):

   -70.4175 -37.3821 -37.3818 -37.3816  -8.2384   2.4711   2.9424   3.0276
     6.7837  10.5366  10.9111  11.2453  13.3790  13.4462  16.1612  17.1739
    17.4833  17.5793  21.0169  25.2297  25.8799  26.0115  28.1161  28.5297
    29.2382  29.7868  30.0541  34.2326  34.4371  35.0584  37.0041  38.4601
    39.0519

     occupation numbers 
     1.0000   1.0000   1.0000   1.0000   1.0000   1.0000   1.0000   1.0000
     0.0000   0.0000   0.0000   0.0000   0.0000   0.0000   0.0000   0.0000
     0.0000   0.0000   0.0000   0.0000   0.0000   0.0000   0.0000   0.0000
     0.0000   0.0000   0.0000   0.0000   0.0000   0.0000   0.0000   0.0000
     0.0000

     the Fermi energy is     5.0965 ev

     Writing output data file /wrk/kfg/julia_data/MgS/znse.in_vnscf_shear_2/qe.nscf.save/
 
     init_run     :      0.25s CPU      0.28s WALL (       1 calls)
     electrons    :    243.05s CPU    251.68s WALL (       1 calls)

     Called by init_run:
     wfcinit      :      0.00s CPU      0.00s WALL (       1 calls)
     wfcinit:atom :      0.06s CPU      0.06s WALL (    1000 calls)
     wfcinit:wfcr :      8.68s CPU      9.18s WALL (    1000 calls)
     potinit      :      0.01s CPU      0.01s WALL (       1 calls)
     hinit0       :      0.20s CPU      0.21s WALL (       1 calls)

     Called by electrons:
     c_bands      :    243.02s CPU    251.59s WALL (       1 calls)
     v_of_rho     :      0.01s CPU      0.01s WALL (       1 calls)
     v_h          :      0.00s CPU      0.00s WALL (       1 calls)
     v_xc         :      0.01s CPU      0.01s WALL (       1 calls)
     newd         :      0.02s CPU      0.02s WALL (       1 calls)

     Called by c_bands:
     init_us_2    :      0.13s CPU      0.14s WALL (    1000 calls)
     cegterg      :    233.12s CPU    241.08s WALL (    1027 calls)

     Called by sum_band:

     Called by *egterg:
     h_psi        :     85.01s CPU     90.15s WALL (   20137 calls)
     s_psi        :      2.07s CPU      2.18s WALL (   20137 calls)
     g_psi        :      0.87s CPU      0.90s WALL (   18110 calls)
     cdiaghg      :    124.76s CPU    126.79s WALL (   19110 calls)
     cegterg:over :     13.46s CPU     14.13s WALL (   18110 calls)
     cegterg:upda :      7.43s CPU      7.67s WALL (   18110 calls)
     cegterg:last :      5.72s CPU      5.93s WALL (    4034 calls)
     cdiaghg:chol :      5.00s CPU      5.13s WALL (   19110 calls)
     cdiaghg:inve :      1.34s CPU      1.38s WALL (   19110 calls)
     cdiaghg:para :     14.90s CPU     15.94s WALL (   38220 calls)

     Called by h_psi:
     h_psi:calbec :      3.18s CPU      3.38s WALL (   20137 calls)
     vloc_psi     :     79.42s CPU     84.24s WALL (   20137 calls)
     add_vuspsi   :      2.11s CPU      2.24s WALL (   20137 calls)

     General routines
     calbec       :      3.11s CPU      3.32s WALL (   20137 calls)
     fft          :      0.01s CPU      0.01s WALL (      13 calls)
     ffts         :      0.00s CPU      0.00s WALL (       1 calls)
     fftw         :     72.15s CPU     76.61s WALL (  879108 calls)
     interpolate  :      0.00s CPU      0.00s WALL (       1 calls)
 
     Parallel routines
     fft_scatt_xy :      8.88s CPU      9.36s WALL (  879122 calls)
     fft_scatt_yz :     26.49s CPU     28.35s WALL (  879122 calls)
 
     PWSCF        :   4m 5.54s CPU   4m18.99s WALL

 
   This run was terminated on:  20: 9:32  16Apr2020            

=------------------------------------------------------------------------------=
   JOB DONE.
=------------------------------------------------------------------------------=
