
     Program PWSCF v.6.5 starts on 16Apr2020 at 21:32:41 

     This program is part of the open-source Quantum ESPRESSO suite
     for quantum simulation of materials; please cite
         "P. Giannozzi et al., J. Phys.:Condens. Matter 21 395502 (2009);
         "P. Giannozzi et al., J. Phys.:Condens. Matter 29 465901 (2017);
          URL http://www.quantum-espresso.org", 
     in publications or presentations arising from this work. More details at
     http://www.quantum-espresso.org/quote

     Parallel version (MPI), running on     8 processors

     MPI processes distributed on     1 nodes
     R & G space division:  proc/nbgrp/npool/nimage =       8
     Reading input from /wrk/kfg/julia_data/MgS/dimer.in_vnscf_coords_5/qe.nscf.in
Warning: card &IONS ignored
Warning: card   ION_DYNAMICS='BFGS', ignored
Warning: card / ignored
Warning: card &CELL ignored
Warning: card  CELL_DYNAMICS = 'BFGS' ignored
Warning: card  CELL_DOFREE = 'ALL' ignored
Warning: card  CELL_FACTOR = 1.0 ignored
Warning: card / ignored
     Message from routine read_cards :
     DEPRECATED: no units specified in CELL_PARAMETERS card

     Current dimensions of program PWSCF are:
     Max number of different atomic species (ntypx) = 10
     Max number of k-points (npk) =  40000
     Max angular momentum in pseudopotentials (lmaxx) =  3

     Atomic positions and unit cell read from directory:
     /wrk/kfg/julia_data/MgS/dimer.in_vnscf_coords_5/qe.nscf.save/                                                                                                                                                                                                   
 
               file mg.pbesol.UPF: wavefunction(s)  3P renormalized

     Subspace diagonalization in iterative solution of the eigenvalue problem:
     one sub-group per band group will be used
     scalapack distributed-memory algorithm (size of sub-group:  2*  2 procs)

 
     Parallelization info
     --------------------
     sticks:   dense  smooth     PW     G-vecs:    dense   smooth      PW
     Min         487     350     97                32720    19990    2917
     Max         490     351     98                32721    19993    2920
     Sum        3909    2801    777               261761   159925   23349
 


     bravais-lattice index     =            0
     lattice parameter (alat)  =      14.0000  a.u.
     unit-cell volume          =    3920.0000 (a.u.)^3
     number of atoms/cell      =            2
     number of atomic types    =            2
     number of electrons       =        16.00
     number of Kohn-Sham states=           33
     kinetic-energy cutoff     =      45.0000  Ry
     charge density cutoff     =     250.0000  Ry
     Exchange-correlation= SLA  PW   PSX  PSC
                           (   1   4  10   8   0   0   0)
     A smooth kinetic-energy cutoff is imposed at      44.5000 Ry
     height of the smooth step-function =             800.0000 Ry
     width of the smooth step-function  =               1.0000 Ry


     celldm(1)=  14.000000  celldm(2)=   0.000000  celldm(3)=   0.000000
     celldm(4)=   0.000000  celldm(5)=   0.000000  celldm(6)=   0.000000

     crystal axes: (cart. coord. in units of alat)
               a(1) = (   1.000000   0.000000   0.000000 )  
               a(2) = (   0.000000   1.000000   0.000000 )  
               a(3) = (   0.000000   0.000000   1.428571 )  

     reciprocal axes: (cart. coord. in units 2 pi/alat)
               b(1) = (  1.000000  0.000000  0.000000 )  
               b(2) = (  0.000000  1.000000  0.000000 )  
               b(3) = (  0.000000  0.000000  0.700000 )  


     PseudoPot. # 1 for Mg read from file:
     /home/kfg/psuedo/gbrv_1.5/mg.pbesol.UPF
     MD5 check sum: cbba17e5274afd115179030b10be074e
     Pseudo is Ultrasoft, Zval = 10.0
     Generated by new atomic code, or converted to UPF format
     Using radial grid of  821 points,  7 beta functions with: 
                l(1) =   0
                l(2) =   0
                l(3) =   0
                l(4) =   1
                l(5) =   1
                l(6) =   2
                l(7) =   2
     Q(r) pseudized with  8 coefficients,  rinner =    1.200   1.200   1.200
                                                       1.200   1.200

     PseudoPot. # 2 for S  read from file:
     /home/kfg/psuedo/gbrv_1.5/s.pbesol.UPF
     MD5 check sum: 0ccfa86ec6eb59065d10aaae963ef2a7
     Pseudo is Ultrasoft + core correction, Zval =  6.0
     Generated by new atomic code, or converted to UPF format
     Using radial grid of  907 points,  6 beta functions with: 
                l(1) =   0
                l(2) =   0
                l(3) =   1
                l(4) =   1
                l(5) =   2
                l(6) =   2
     Q(r) pseudized with  8 coefficients,  rinner =    1.300   1.300   1.300
                                                       1.300   1.300

     atomic species   valence    mass     pseudopotential
        Mg            10.00    24.31000     Mg( 1.00)
        S              6.00    32.06000     S ( 1.00)

     No symmetry found


                                    s                        frac. trans.

      isym =  1     identity                                     

 cryst.   s( 1) = (     1          0          0      )
                  (     0          1          0      )
                  (     0          0          1      )

 cart.    s( 1) = (  1.0000000  0.0000000  0.0000000 )
                  (  0.0000000  1.0000000  0.0000000 )
                  (  0.0000000  0.0000000  1.0000000 )


   Cartesian axes

     site n.     atom                  positions (alat units)
         1           Mg  tau(   1) = (   0.0000000   0.0000000  -0.1444104  )
         2           S   tau(   2) = (   0.0000000   0.0000000   0.1444104  )

   Crystallographic axes

     site n.     atom                  positions (cryst. coord.)
         1           Mg  tau(   1) = (  0.0000000  0.0000000 -0.1010873  )
         2           S   tau(   2) = (  0.0000000  0.0000000  0.1010873  )

     number of k points=    64  Gaussian smearing, width (Ry)=  0.0100
                       cart. coord. in units 2pi/alat
        k(    1) = (   0.0000000   0.0000000   0.0000000), wk =   0.0312500
        k(    2) = (   0.0000000   0.0000000   0.1750000), wk =   0.0312500
        k(    3) = (   0.0000000   0.0000000  -0.3500000), wk =   0.0312500
        k(    4) = (   0.0000000   0.0000000  -0.1750000), wk =   0.0312500
        k(    5) = (   0.0000000   0.2500000   0.0000000), wk =   0.0312500
        k(    6) = (   0.0000000   0.2500000   0.1750000), wk =   0.0312500
        k(    7) = (   0.0000000   0.2500000  -0.3500000), wk =   0.0312500
        k(    8) = (   0.0000000   0.2500000  -0.1750000), wk =   0.0312500
        k(    9) = (   0.0000000  -0.5000000   0.0000000), wk =   0.0312500
        k(   10) = (   0.0000000  -0.5000000   0.1750000), wk =   0.0312500
        k(   11) = (   0.0000000  -0.5000000  -0.3500000), wk =   0.0312500
        k(   12) = (   0.0000000  -0.5000000  -0.1750000), wk =   0.0312500
        k(   13) = (   0.0000000  -0.2500000   0.0000000), wk =   0.0312500
        k(   14) = (   0.0000000  -0.2500000   0.1750000), wk =   0.0312500
        k(   15) = (   0.0000000  -0.2500000  -0.3500000), wk =   0.0312500
        k(   16) = (   0.0000000  -0.2500000  -0.1750000), wk =   0.0312500
        k(   17) = (   0.2500000   0.0000000   0.0000000), wk =   0.0312500
        k(   18) = (   0.2500000   0.0000000   0.1750000), wk =   0.0312500
        k(   19) = (   0.2500000   0.0000000  -0.3500000), wk =   0.0312500
        k(   20) = (   0.2500000   0.0000000  -0.1750000), wk =   0.0312500
        k(   21) = (   0.2500000   0.2500000   0.0000000), wk =   0.0312500
        k(   22) = (   0.2500000   0.2500000   0.1750000), wk =   0.0312500
        k(   23) = (   0.2500000   0.2500000  -0.3500000), wk =   0.0312500
        k(   24) = (   0.2500000   0.2500000  -0.1750000), wk =   0.0312500
        k(   25) = (   0.2500000  -0.5000000   0.0000000), wk =   0.0312500
        k(   26) = (   0.2500000  -0.5000000   0.1750000), wk =   0.0312500
        k(   27) = (   0.2500000  -0.5000000  -0.3500000), wk =   0.0312500
        k(   28) = (   0.2500000  -0.5000000  -0.1750000), wk =   0.0312500
        k(   29) = (   0.2500000  -0.2500000   0.0000000), wk =   0.0312500
        k(   30) = (   0.2500000  -0.2500000   0.1750000), wk =   0.0312500
        k(   31) = (   0.2500000  -0.2500000  -0.3500000), wk =   0.0312500
        k(   32) = (   0.2500000  -0.2500000  -0.1750000), wk =   0.0312500
        k(   33) = (  -0.5000000   0.0000000   0.0000000), wk =   0.0312500
        k(   34) = (  -0.5000000   0.0000000   0.1750000), wk =   0.0312500
        k(   35) = (  -0.5000000   0.0000000  -0.3500000), wk =   0.0312500
        k(   36) = (  -0.5000000   0.0000000  -0.1750000), wk =   0.0312500
        k(   37) = (  -0.5000000   0.2500000   0.0000000), wk =   0.0312500
        k(   38) = (  -0.5000000   0.2500000   0.1750000), wk =   0.0312500
        k(   39) = (  -0.5000000   0.2500000  -0.3500000), wk =   0.0312500
        k(   40) = (  -0.5000000   0.2500000  -0.1750000), wk =   0.0312500
        k(   41) = (  -0.5000000  -0.5000000   0.0000000), wk =   0.0312500
        k(   42) = (  -0.5000000  -0.5000000   0.1750000), wk =   0.0312500
        k(   43) = (  -0.5000000  -0.5000000  -0.3500000), wk =   0.0312500
        k(   44) = (  -0.5000000  -0.5000000  -0.1750000), wk =   0.0312500
        k(   45) = (  -0.5000000  -0.2500000   0.0000000), wk =   0.0312500
        k(   46) = (  -0.5000000  -0.2500000   0.1750000), wk =   0.0312500
        k(   47) = (  -0.5000000  -0.2500000  -0.3500000), wk =   0.0312500
        k(   48) = (  -0.5000000  -0.2500000  -0.1750000), wk =   0.0312500
        k(   49) = (  -0.2500000   0.0000000   0.0000000), wk =   0.0312500
        k(   50) = (  -0.2500000   0.0000000   0.1750000), wk =   0.0312500
        k(   51) = (  -0.2500000   0.0000000  -0.3500000), wk =   0.0312500
        k(   52) = (  -0.2500000   0.0000000  -0.1750000), wk =   0.0312500
        k(   53) = (  -0.2500000   0.2500000   0.0000000), wk =   0.0312500
        k(   54) = (  -0.2500000   0.2500000   0.1750000), wk =   0.0312500
        k(   55) = (  -0.2500000   0.2500000  -0.3500000), wk =   0.0312500
        k(   56) = (  -0.2500000   0.2500000  -0.1750000), wk =   0.0312500
        k(   57) = (  -0.2500000  -0.5000000   0.0000000), wk =   0.0312500
        k(   58) = (  -0.2500000  -0.5000000   0.1750000), wk =   0.0312500
        k(   59) = (  -0.2500000  -0.5000000  -0.3500000), wk =   0.0312500
        k(   60) = (  -0.2500000  -0.5000000  -0.1750000), wk =   0.0312500
        k(   61) = (  -0.2500000  -0.2500000   0.0000000), wk =   0.0312500
        k(   62) = (  -0.2500000  -0.2500000   0.1750000), wk =   0.0312500
        k(   63) = (  -0.2500000  -0.2500000  -0.3500000), wk =   0.0312500
        k(   64) = (  -0.2500000  -0.2500000  -0.1750000), wk =   0.0312500

                       cryst. coord.
        k(    1) = (   0.0000000   0.0000000   0.0000000), wk =   0.0312500
        k(    2) = (   0.0000000   0.0000000   0.2500000), wk =   0.0312500
        k(    3) = (   0.0000000   0.0000000  -0.5000000), wk =   0.0312500
        k(    4) = (   0.0000000   0.0000000  -0.2500000), wk =   0.0312500
        k(    5) = (   0.0000000   0.2500000   0.0000000), wk =   0.0312500
        k(    6) = (   0.0000000   0.2500000   0.2500000), wk =   0.0312500
        k(    7) = (   0.0000000   0.2500000  -0.5000000), wk =   0.0312500
        k(    8) = (   0.0000000   0.2500000  -0.2500000), wk =   0.0312500
        k(    9) = (   0.0000000  -0.5000000   0.0000000), wk =   0.0312500
        k(   10) = (   0.0000000  -0.5000000   0.2500000), wk =   0.0312500
        k(   11) = (   0.0000000  -0.5000000  -0.5000000), wk =   0.0312500
        k(   12) = (   0.0000000  -0.5000000  -0.2500000), wk =   0.0312500
        k(   13) = (   0.0000000  -0.2500000   0.0000000), wk =   0.0312500
        k(   14) = (   0.0000000  -0.2500000   0.2500000), wk =   0.0312500
        k(   15) = (   0.0000000  -0.2500000  -0.5000000), wk =   0.0312500
        k(   16) = (   0.0000000  -0.2500000  -0.2500000), wk =   0.0312500
        k(   17) = (   0.2500000   0.0000000   0.0000000), wk =   0.0312500
        k(   18) = (   0.2500000   0.0000000   0.2500000), wk =   0.0312500
        k(   19) = (   0.2500000   0.0000000  -0.5000000), wk =   0.0312500
        k(   20) = (   0.2500000   0.0000000  -0.2500000), wk =   0.0312500
        k(   21) = (   0.2500000   0.2500000   0.0000000), wk =   0.0312500
        k(   22) = (   0.2500000   0.2500000   0.2500000), wk =   0.0312500
        k(   23) = (   0.2500000   0.2500000  -0.5000000), wk =   0.0312500
        k(   24) = (   0.2500000   0.2500000  -0.2500000), wk =   0.0312500
        k(   25) = (   0.2500000  -0.5000000   0.0000000), wk =   0.0312500
        k(   26) = (   0.2500000  -0.5000000   0.2500000), wk =   0.0312500
        k(   27) = (   0.2500000  -0.5000000  -0.5000000), wk =   0.0312500
        k(   28) = (   0.2500000  -0.5000000  -0.2500000), wk =   0.0312500
        k(   29) = (   0.2500000  -0.2500000   0.0000000), wk =   0.0312500
        k(   30) = (   0.2500000  -0.2500000   0.2500000), wk =   0.0312500
        k(   31) = (   0.2500000  -0.2500000  -0.5000000), wk =   0.0312500
        k(   32) = (   0.2500000  -0.2500000  -0.2500000), wk =   0.0312500
        k(   33) = (  -0.5000000   0.0000000   0.0000000), wk =   0.0312500
        k(   34) = (  -0.5000000   0.0000000   0.2500000), wk =   0.0312500
        k(   35) = (  -0.5000000   0.0000000  -0.5000000), wk =   0.0312500
        k(   36) = (  -0.5000000   0.0000000  -0.2500000), wk =   0.0312500
        k(   37) = (  -0.5000000   0.2500000   0.0000000), wk =   0.0312500
        k(   38) = (  -0.5000000   0.2500000   0.2500000), wk =   0.0312500
        k(   39) = (  -0.5000000   0.2500000  -0.5000000), wk =   0.0312500
        k(   40) = (  -0.5000000   0.2500000  -0.2500000), wk =   0.0312500
        k(   41) = (  -0.5000000  -0.5000000   0.0000000), wk =   0.0312500
        k(   42) = (  -0.5000000  -0.5000000   0.2500000), wk =   0.0312500
        k(   43) = (  -0.5000000  -0.5000000  -0.5000000), wk =   0.0312500
        k(   44) = (  -0.5000000  -0.5000000  -0.2500000), wk =   0.0312500
        k(   45) = (  -0.5000000  -0.2500000   0.0000000), wk =   0.0312500
        k(   46) = (  -0.5000000  -0.2500000   0.2500000), wk =   0.0312500
        k(   47) = (  -0.5000000  -0.2500000  -0.5000000), wk =   0.0312500
        k(   48) = (  -0.5000000  -0.2500000  -0.2500000), wk =   0.0312500
        k(   49) = (  -0.2500000   0.0000000   0.0000000), wk =   0.0312500
        k(   50) = (  -0.2500000   0.0000000   0.2500000), wk =   0.0312500
        k(   51) = (  -0.2500000   0.0000000  -0.5000000), wk =   0.0312500
        k(   52) = (  -0.2500000   0.0000000  -0.2500000), wk =   0.0312500
        k(   53) = (  -0.2500000   0.2500000   0.0000000), wk =   0.0312500
        k(   54) = (  -0.2500000   0.2500000   0.2500000), wk =   0.0312500
        k(   55) = (  -0.2500000   0.2500000  -0.5000000), wk =   0.0312500
        k(   56) = (  -0.2500000   0.2500000  -0.2500000), wk =   0.0312500
        k(   57) = (  -0.2500000  -0.5000000   0.0000000), wk =   0.0312500
        k(   58) = (  -0.2500000  -0.5000000   0.2500000), wk =   0.0312500
        k(   59) = (  -0.2500000  -0.5000000  -0.5000000), wk =   0.0312500
        k(   60) = (  -0.2500000  -0.5000000  -0.2500000), wk =   0.0312500
        k(   61) = (  -0.2500000  -0.2500000   0.0000000), wk =   0.0312500
        k(   62) = (  -0.2500000  -0.2500000   0.2500000), wk =   0.0312500
        k(   63) = (  -0.2500000  -0.2500000  -0.5000000), wk =   0.0312500
        k(   64) = (  -0.2500000  -0.2500000  -0.2500000), wk =   0.0312500

     Dense  grid:   261761 G-vectors     FFT dimensions: (  72,  72, 108)

     Smooth grid:   159925 G-vectors     FFT dimensions: (  60,  60,  90)

     Dynamical RAM for                 wfc:       1.26 MB

     Dynamical RAM for     wfc (w. buffer):      81.73 MB

     Dynamical RAM for           str. fact:       1.00 MB

     Dynamical RAM for           local pot:       0.00 MB

     Dynamical RAM for          nlocal pot:       1.41 MB

     Dynamical RAM for                qrad:       7.53 MB

     Dynamical RAM for          rho,v,vnew:       3.16 MB

     Dynamical RAM for           G-vectors:       2.02 MB

     Dynamical RAM for          h,s,v(r/c):       0.20 MB

     Dynamical RAM for          <psi|beta>:       0.02 MB

     Dynamical RAM for                 psi:       5.03 MB

     Dynamical RAM for                hpsi:       5.03 MB

     Dynamical RAM for                spsi:       5.03 MB

     Dynamical RAM for      wfcinit/wfcrot:       2.54 MB

     Dynamical RAM for           addusdens:     102.85 MB

     Estimated static dynamical RAM per process >     101.12 MB

     Estimated max dynamical RAM per process >     203.97 MB

     Estimated total dynamical RAM >       1.59 GB

     The potential is recalculated from file :
     /wrk/kfg/julia_data/MgS/dimer.in_vnscf_coords_5/qe.nscf.save/charge-density


     negative rho (up, down):  5.518E-05 0.000E+00
     Starting wfcs are   12 randomized atomic wfcs +   21 random wfcs

     Band Structure Calculation
     Davidson diagonalization with overlap

     Computing kpt #:     1  of    64
     total cpu time spent up to now is        3.3 secs

     Computing kpt #:     2  of    64
     total cpu time spent up to now is        5.2 secs

     Computing kpt #:     3  of    64
     total cpu time spent up to now is        7.3 secs

     Computing kpt #:     4  of    64
     total cpu time spent up to now is        9.2 secs

     Computing kpt #:     5  of    64
     total cpu time spent up to now is       11.7 secs

     Computing kpt #:     6  of    64
     total cpu time spent up to now is       13.6 secs

     Computing kpt #:     7  of    64
     c_bands:  1 eigenvalues not converged
     total cpu time spent up to now is       16.6 secs

     Computing kpt #:     8  of    64
     total cpu time spent up to now is       18.5 secs

     Computing kpt #:     9  of    64
     total cpu time spent up to now is       20.3 secs

     Computing kpt #:    10  of    64
     total cpu time spent up to now is       22.2 secs

     Computing kpt #:    11  of    64
     total cpu time spent up to now is       24.3 secs

     Computing kpt #:    12  of    64
     total cpu time spent up to now is       26.1 secs

     Computing kpt #:    13  of    64
     total cpu time spent up to now is       28.6 secs

     Computing kpt #:    14  of    64
     total cpu time spent up to now is       30.5 secs

     Computing kpt #:    15  of    64
     c_bands:  1 eigenvalues not converged
     total cpu time spent up to now is       33.6 secs

     Computing kpt #:    16  of    64
     total cpu time spent up to now is       35.5 secs

     Computing kpt #:    17  of    64
     total cpu time spent up to now is       38.0 secs

     Computing kpt #:    18  of    64
     total cpu time spent up to now is       39.9 secs

     Computing kpt #:    19  of    64
     c_bands:  1 eigenvalues not converged
     total cpu time spent up to now is       43.0 secs

     Computing kpt #:    20  of    64
     total cpu time spent up to now is       44.9 secs

     Computing kpt #:    21  of    64
     total cpu time spent up to now is       47.2 secs

     Computing kpt #:    22  of    64
     total cpu time spent up to now is       49.3 secs

     Computing kpt #:    23  of    64
     total cpu time spent up to now is       51.3 secs

     Computing kpt #:    24  of    64
     total cpu time spent up to now is       53.3 secs

     Computing kpt #:    25  of    64
     total cpu time spent up to now is       55.4 secs

     Computing kpt #:    26  of    64
     total cpu time spent up to now is       57.2 secs

     Computing kpt #:    27  of    64
     total cpu time spent up to now is       59.2 secs

     Computing kpt #:    28  of    64
     total cpu time spent up to now is       61.0 secs

     Computing kpt #:    29  of    64
     total cpu time spent up to now is       63.4 secs

     Computing kpt #:    30  of    64
     total cpu time spent up to now is       65.3 secs

     Computing kpt #:    31  of    64
     total cpu time spent up to now is       67.4 secs

     Computing kpt #:    32  of    64
     total cpu time spent up to now is       69.4 secs

     Computing kpt #:    33  of    64
     total cpu time spent up to now is       71.3 secs

     Computing kpt #:    34  of    64
     total cpu time spent up to now is       73.1 secs

     Computing kpt #:    35  of    64
     total cpu time spent up to now is       75.2 secs

     Computing kpt #:    36  of    64
     total cpu time spent up to now is       77.1 secs

     Computing kpt #:    37  of    64
     total cpu time spent up to now is       79.3 secs

     Computing kpt #:    38  of    64
     total cpu time spent up to now is       81.2 secs

     Computing kpt #:    39  of    64
     total cpu time spent up to now is       83.3 secs

     Computing kpt #:    40  of    64
     total cpu time spent up to now is       85.2 secs

     Computing kpt #:    41  of    64
     total cpu time spent up to now is       87.5 secs

     Computing kpt #:    42  of    64
     total cpu time spent up to now is       89.8 secs

     Computing kpt #:    43  of    64
     total cpu time spent up to now is       91.8 secs

     Computing kpt #:    44  of    64
     total cpu time spent up to now is       94.0 secs

     Computing kpt #:    45  of    64
     total cpu time spent up to now is       96.2 secs

     Computing kpt #:    46  of    64
     total cpu time spent up to now is       98.0 secs

     Computing kpt #:    47  of    64
     total cpu time spent up to now is      100.1 secs

     Computing kpt #:    48  of    64
     total cpu time spent up to now is      102.0 secs

     Computing kpt #:    49  of    64
     total cpu time spent up to now is      104.5 secs

     Computing kpt #:    50  of    64
     total cpu time spent up to now is      106.4 secs

     Computing kpt #:    51  of    64
     c_bands:  1 eigenvalues not converged
     total cpu time spent up to now is      109.5 secs

     Computing kpt #:    52  of    64
     total cpu time spent up to now is      111.4 secs

     Computing kpt #:    53  of    64
     total cpu time spent up to now is      113.3 secs

     Computing kpt #:    54  of    64
     total cpu time spent up to now is      115.3 secs

     Computing kpt #:    55  of    64
     total cpu time spent up to now is      117.5 secs

     Computing kpt #:    56  of    64
     total cpu time spent up to now is      119.4 secs

     Computing kpt #:    57  of    64
     total cpu time spent up to now is      121.5 secs

     Computing kpt #:    58  of    64
     total cpu time spent up to now is      123.4 secs

     Computing kpt #:    59  of    64
     total cpu time spent up to now is      125.3 secs

     Computing kpt #:    60  of    64
     total cpu time spent up to now is      127.2 secs

     Computing kpt #:    61  of    64
     total cpu time spent up to now is      129.1 secs

     Computing kpt #:    62  of    64
     total cpu time spent up to now is      131.0 secs

     Computing kpt #:    63  of    64
     total cpu time spent up to now is      133.0 secs

     Computing kpt #:    64  of    64
     total cpu time spent up to now is      134.9 secs

     ethr =  6.25E-12,  avg # of iterations = 48.3

     total cpu time spent up to now is      134.9 secs

     End of band structure calculation

          k = 0.0000 0.0000 0.0000 ( 19923 PWs)   bands (ev):

   -80.3648 -47.3193 -47.3148 -47.3148 -14.1562  -5.8159  -4.0754  -4.0754
    -3.5698  -0.3790  -0.3790   0.2440   0.4961   1.4347   1.4659   2.7806
     2.7806   2.8386   3.1041   3.3864   3.3972   3.7283   3.7503   3.7503
     4.3059   4.3235   4.3235   4.9154   5.2060   5.2060   5.2308   5.3425
     6.0761

     occupation numbers 
     1.0000   1.0000   1.0000   1.0000   1.0000   1.0000   0.9981   0.9981
     0.0089   0.0000   0.0000   0.0000   0.0000   0.0000   0.0000   0.0000
     0.0000   0.0000   0.0000   0.0000   0.0000   0.0000   0.0000   0.0000
     0.0000   0.0000   0.0000   0.0000   0.0000   0.0000   0.0000   0.0000
     0.0000

          k = 0.0000 0.0000 0.1750 ( 19971 PWs)   bands (ev):

   -80.3648 -47.3193 -47.3148 -47.3148 -14.1562  -5.8168  -4.0753  -4.0753
    -3.5638  -0.3821  -0.3821   0.1876   0.4262   1.4817   1.7189   2.6559
     2.8600   2.8600   3.0754   3.1106   3.6753   3.6861   3.6861   3.9471
     4.1835   4.1835   4.2635   4.6777   5.1739   5.4351   5.4351   5.4466
     5.9885

     occupation numbers 
     1.0000   1.0000   1.0000   1.0000   1.0000   1.0000   0.9980   0.9980
     0.0075   0.0000   0.0000   0.0000   0.0000   0.0000   0.0000   0.0000
     0.0000   0.0000   0.0000   0.0000   0.0000   0.0000   0.0000   0.0000
     0.0000   0.0000   0.0000   0.0000   0.0000   0.0000   0.0000   0.0000
     0.0000

          k = 0.0000 0.0000-0.3500 ( 19978 PWs)   bands (ev):

   -80.3648 -47.3193 -47.3148 -47.3148 -14.1562  -5.8177  -4.0753  -4.0753
    -3.5577  -0.3851  -0.3851   0.1171   0.4041   1.4986   1.9909   2.6640
     2.9173   2.9675   2.9675   3.1171   3.3091   3.5626   3.5626   4.0109
     4.1259   4.1259   4.8091   5.0615   5.0699   5.1775   5.4516   5.4516
     5.5450

     occupation numbers 
     1.0000   1.0000   1.0000   1.0000   1.0000   1.0000   0.9980   0.9980
     0.0063   0.0000   0.0000   0.0000   0.0000   0.0000   0.0000   0.0000
     0.0000   0.0000   0.0000   0.0000   0.0000   0.0000   0.0000   0.0000
     0.0000   0.0000   0.0000   0.0000   0.0000   0.0000   0.0000   0.0000
     0.0000

          k = 0.0000 0.0000-0.1750 ( 19971 PWs)   bands (ev):

   -80.3648 -47.3193 -47.3148 -47.3148 -14.1562  -5.8168  -4.0753  -4.0753
    -3.5638  -0.3821  -0.3821   0.1876   0.4262   1.4817   1.7189   2.6559
     2.8600   2.8600   3.0754   3.1106   3.6753   3.6861   3.6861   3.9471
     4.1835   4.1835   4.2635   4.6777   5.1739   5.4351   5.4351   5.4466
     5.9885

     occupation numbers 
     1.0000   1.0000   1.0000   1.0000   1.0000   1.0000   0.9980   0.9980
     0.0075   0.0000   0.0000   0.0000   0.0000   0.0000   0.0000   0.0000
     0.0000   0.0000   0.0000   0.0000   0.0000   0.0000   0.0000   0.0000
     0.0000   0.0000   0.0000   0.0000   0.0000   0.0000   0.0000   0.0000
     0.0000

          k = 0.0000 0.2500 0.0000 ( 19968 PWs)   bands (ev):

   -80.3648 -47.3193 -47.3148 -47.3148 -14.1561  -5.8124  -4.0904  -4.0741
    -3.5490  -0.7067  -0.3507   0.5595   0.6320   1.5419   1.7269   2.2297
     2.4621   2.5719   3.0403   3.1743   3.1977   3.8150   4.1322   4.1681
     4.4851   4.4921   4.7598   4.9572   5.1240   5.2210   5.2962   5.5692
     5.6400

     occupation numbers 
     1.0000   1.0000   1.0000   1.0000   1.0000   1.0000   0.9988   0.9980
     0.0049   0.0000   0.0000   0.0000   0.0000   0.0000   0.0000   0.0000
     0.0000   0.0000   0.0000   0.0000   0.0000   0.0000   0.0000   0.0000
     0.0000   0.0000   0.0000   0.0000   0.0000   0.0000   0.0000   0.0000
     0.0000

          k = 0.0000 0.2500 0.1750 ( 19980 PWs)   bands (ev):

   -80.3648 -47.3193 -47.3148 -47.3148 -14.1561  -5.8133  -4.0903  -4.0741
    -3.5433  -0.7095  -0.3537   0.3767   0.7296   1.6135   1.8873   2.0979
     2.4886   2.7697   2.9737   3.0854   3.3006   3.7913   3.9735   4.2302
     4.3982   4.4509   4.6623   4.8955   4.9052   5.1689   5.3446   5.4384
     5.7263

     occupation numbers 
     1.0000   1.0000   1.0000   1.0000   1.0000   1.0000   0.9988   0.9980
     0.0041   0.0000   0.0000   0.0000   0.0000   0.0000   0.0000   0.0000
     0.0000   0.0000   0.0000   0.0000   0.0000   0.0000   0.0000   0.0000
     0.0000   0.0000   0.0000   0.0000   0.0000   0.0000   0.0000   0.0000
     0.0000

          k = 0.0000 0.2500-0.3500 ( 19962 PWs)   bands (ev):

   -80.3648 -47.3193 -47.3148 -47.3148 -14.1561  -5.8142  -4.0901  -4.0740
    -3.5375  -0.7122  -0.3566   0.2724   0.7662   1.7207   1.7854   2.3302
     2.5169   2.7354   3.0575   3.1325   3.3658   3.4506   3.8836   4.2397
     4.3036   4.3406   4.6700   4.7713   5.0667   5.1612   5.5150   5.6400
     5.9112

     occupation numbers 
     1.0000   1.0000   1.0000   1.0000   1.0000   1.0000   0.9988   0.9980
     0.0034   0.0000   0.0000   0.0000   0.0000   0.0000   0.0000   0.0000
     0.0000   0.0000   0.0000   0.0000   0.0000   0.0000   0.0000   0.0000
     0.0000   0.0000   0.0000   0.0000   0.0000   0.0000   0.0000   0.0000
     0.0000

          k = 0.0000 0.2500-0.1750 ( 19980 PWs)   bands (ev):

   -80.3648 -47.3193 -47.3148 -47.3148 -14.1561  -5.8133  -4.0903  -4.0741
    -3.5433  -0.7095  -0.3537   0.3767   0.7296   1.6135   1.8873   2.0979
     2.4886   2.7697   2.9737   3.0854   3.3006   3.7913   3.9735   4.2302
     4.3982   4.4509   4.6623   4.8955   4.9052   5.1689   5.3446   5.4384
     5.7263

     occupation numbers 
     1.0000   1.0000   1.0000   1.0000   1.0000   1.0000   0.9988   0.9980
     0.0041   0.0000   0.0000   0.0000   0.0000   0.0000   0.0000   0.0000
     0.0000   0.0000   0.0000   0.0000   0.0000   0.0000   0.0000   0.0000
     0.0000   0.0000   0.0000   0.0000   0.0000   0.0000   0.0000   0.0000
     0.0000

          k = 0.0000-0.5000 0.0000 ( 20022 PWs)   bands (ev):

   -80.3648 -47.3193 -47.3148 -47.3148 -14.1560  -5.8090  -4.1049  -4.0728
    -3.5278  -0.9159  -0.3205   0.8269   0.9511   1.1922   1.9504   1.9857
     2.2004   2.4972   3.1739   3.1842   3.4759   3.5815   4.1018   4.1270
     4.2785   4.4313   4.6847   4.8450   4.9863   5.2398   5.4605   5.8010
     5.8090

     occupation numbers 
     1.0000   1.0000   1.0000   1.0000   1.0000   1.0000   0.9993   0.9979
     0.0025   0.0000   0.0000   0.0000   0.0000   0.0000   0.0000   0.0000
     0.0000   0.0000   0.0000   0.0000   0.0000   0.0000   0.0000   0.0000
     0.0000   0.0000   0.0000   0.0000   0.0000   0.0000   0.0000   0.0000
     0.0000

          k = 0.0000-0.5000 0.1750 ( 19978 PWs)   bands (ev):

   -80.3648 -47.3193 -47.3148 -47.3148 -14.1560  -5.8098  -4.1047  -4.0728
    -3.5224  -0.9196  -0.3233   0.6366   1.0565   1.2176   1.8414   2.2161
     2.2317   2.6981   3.0507   3.2681   3.5089   3.5260   3.7947   4.1951
     4.3028   4.4033   4.4558   4.8646   4.9508   5.3066   5.4460   5.6899
     5.9348

     occupation numbers 
     1.0000   1.0000   1.0000   1.0000   1.0000   1.0000   0.9993   0.9979
     0.0021   0.0000   0.0000   0.0000   0.0000   0.0000   0.0000   0.0000
     0.0000   0.0000   0.0000   0.0000   0.0000   0.0000   0.0000   0.0000
     0.0000   0.0000   0.0000   0.0000   0.0000   0.0000   0.0000   0.0000
     0.0000

          k = 0.0000-0.5000-0.3500 ( 19976 PWs)   bands (ev):

   -80.3648 -47.3193 -47.3148 -47.3148 -14.1560  -5.8107  -4.1045  -4.0727
    -3.5169  -0.9233  -0.3261   0.5255   1.0973   1.2481   1.7519   2.2329
     2.5063   2.9503   2.9881   3.3966   3.4080   3.5078   3.6387   4.0170
     4.0919   4.2134   4.2230   5.2013   5.3886   5.5137   5.6466   5.6762
     5.7108

     occupation numbers 
     1.0000   1.0000   1.0000   1.0000   1.0000   1.0000   0.9993   0.9979
     0.0018   0.0000   0.0000   0.0000   0.0000   0.0000   0.0000   0.0000
     0.0000   0.0000   0.0000   0.0000   0.0000   0.0000   0.0000   0.0000
     0.0000   0.0000   0.0000   0.0000   0.0000   0.0000   0.0000   0.0000
     0.0000

          k = 0.0000-0.5000-0.1750 ( 19978 PWs)   bands (ev):

   -80.3648 -47.3193 -47.3148 -47.3148 -14.1560  -5.8098  -4.1047  -4.0728
    -3.5224  -0.9196  -0.3233   0.6366   1.0565   1.2176   1.8414   2.2161
     2.2317   2.6981   3.0507   3.2681   3.5089   3.5260   3.7947   4.1951
     4.3028   4.4033   4.4558   4.8646   4.9508   5.3066   5.4460   5.6899
     5.9348

     occupation numbers 
     1.0000   1.0000   1.0000   1.0000   1.0000   1.0000   0.9993   0.9979
     0.0021   0.0000   0.0000   0.0000   0.0000   0.0000   0.0000   0.0000
     0.0000   0.0000   0.0000   0.0000   0.0000   0.0000   0.0000   0.0000
     0.0000   0.0000   0.0000   0.0000   0.0000   0.0000   0.0000   0.0000
     0.0000

          k = 0.0000-0.2500 0.0000 ( 19968 PWs)   bands (ev):

   -80.3648 -47.3193 -47.3148 -47.3148 -14.1561  -5.8124  -4.0904  -4.0741
    -3.5490  -0.7067  -0.3507   0.5595   0.6320   1.5419   1.7269   2.2297
     2.4621   2.5719   3.0403   3.1743   3.1977   3.8150   4.1322   4.1681
     4.4851   4.4921   4.7598   4.9572   5.1240   5.2210   5.2962   5.5692
     5.6400

     occupation numbers 
     1.0000   1.0000   1.0000   1.0000   1.0000   1.0000   0.9988   0.9980
     0.0049   0.0000   0.0000   0.0000   0.0000   0.0000   0.0000   0.0000
     0.0000   0.0000   0.0000   0.0000   0.0000   0.0000   0.0000   0.0000
     0.0000   0.0000   0.0000   0.0000   0.0000   0.0000   0.0000   0.0000
     0.0000

          k = 0.0000-0.2500 0.1750 ( 19980 PWs)   bands (ev):

   -80.3648 -47.3193 -47.3148 -47.3148 -14.1561  -5.8133  -4.0903  -4.0741
    -3.5433  -0.7095  -0.3537   0.3767   0.7296   1.6135   1.8873   2.0979
     2.4886   2.7697   2.9737   3.0854   3.3006   3.7913   3.9735   4.2302
     4.3982   4.4509   4.6623   4.8955   4.9052   5.1689   5.3446   5.4384
     5.7263

     occupation numbers 
     1.0000   1.0000   1.0000   1.0000   1.0000   1.0000   0.9988   0.9980
     0.0041   0.0000   0.0000   0.0000   0.0000   0.0000   0.0000   0.0000
     0.0000   0.0000   0.0000   0.0000   0.0000   0.0000   0.0000   0.0000
     0.0000   0.0000   0.0000   0.0000   0.0000   0.0000   0.0000   0.0000
     0.0000

          k = 0.0000-0.2500-0.3500 ( 19962 PWs)   bands (ev):

   -80.3648 -47.3193 -47.3148 -47.3148 -14.1561  -5.8142  -4.0901  -4.0740
    -3.5375  -0.7122  -0.3566   0.2724   0.7662   1.7207   1.7854   2.3302
     2.5169   2.7354   3.0575   3.1325   3.3658   3.4506   3.8836   4.2397
     4.3036   4.3406   4.6700   4.7713   5.0667   5.1612   5.5150   5.6400
     5.9112

     occupation numbers 
     1.0000   1.0000   1.0000   1.0000   1.0000   1.0000   0.9988   0.9980
     0.0034   0.0000   0.0000   0.0000   0.0000   0.0000   0.0000   0.0000
     0.0000   0.0000   0.0000   0.0000   0.0000   0.0000   0.0000   0.0000
     0.0000   0.0000   0.0000   0.0000   0.0000   0.0000   0.0000   0.0000
     0.0000

          k = 0.0000-0.2500-0.1750 ( 19980 PWs)   bands (ev):

   -80.3648 -47.3193 -47.3148 -47.3148 -14.1561  -5.8133  -4.0903  -4.0741
    -3.5433  -0.7095  -0.3537   0.3767   0.7296   1.6135   1.8873   2.0979
     2.4886   2.7697   2.9737   3.0854   3.3006   3.7913   3.9735   4.2302
     4.3982   4.4509   4.6623   4.8955   4.9052   5.1689   5.3446   5.4384
     5.7263

     occupation numbers 
     1.0000   1.0000   1.0000   1.0000   1.0000   1.0000   0.9988   0.9980
     0.0041   0.0000   0.0000   0.0000   0.0000   0.0000   0.0000   0.0000
     0.0000   0.0000   0.0000   0.0000   0.0000   0.0000   0.0000   0.0000
     0.0000   0.0000   0.0000   0.0000   0.0000   0.0000   0.0000   0.0000
     0.0000

          k = 0.2500 0.0000 0.0000 ( 19968 PWs)   bands (ev):

   -80.3648 -47.3193 -47.3148 -47.3148 -14.1561  -5.8124  -4.0904  -4.0741
    -3.5490  -0.7067  -0.3507   0.5595   0.6320   1.5419   1.7269   2.2297
     2.4621   2.5719   3.0403   3.1743   3.1977   3.8150   4.1322   4.1681
     4.4851   4.4921   4.7598   4.9572   5.1240   5.2210   5.2962   5.5692
     5.6400

     occupation numbers 
     1.0000   1.0000   1.0000   1.0000   1.0000   1.0000   0.9988   0.9980
     0.0049   0.0000   0.0000   0.0000   0.0000   0.0000   0.0000   0.0000
     0.0000   0.0000   0.0000   0.0000   0.0000   0.0000   0.0000   0.0000
     0.0000   0.0000   0.0000   0.0000   0.0000   0.0000   0.0000   0.0000
     0.0000

          k = 0.2500 0.0000 0.1750 ( 19980 PWs)   bands (ev):

   -80.3648 -47.3193 -47.3148 -47.3148 -14.1561  -5.8133  -4.0903  -4.0741
    -3.5433  -0.7095  -0.3537   0.3767   0.7296   1.6135   1.8873   2.0979
     2.4886   2.7697   2.9737   3.0854   3.3006   3.7913   3.9735   4.2302
     4.3982   4.4509   4.6623   4.8955   4.9052   5.1689   5.3446   5.4384
     5.7263

     occupation numbers 
     1.0000   1.0000   1.0000   1.0000   1.0000   1.0000   0.9988   0.9980
     0.0041   0.0000   0.0000   0.0000   0.0000   0.0000   0.0000   0.0000
     0.0000   0.0000   0.0000   0.0000   0.0000   0.0000   0.0000   0.0000
     0.0000   0.0000   0.0000   0.0000   0.0000   0.0000   0.0000   0.0000
     0.0000

          k = 0.2500 0.0000-0.3500 ( 19962 PWs)   bands (ev):

   -80.3648 -47.3193 -47.3148 -47.3148 -14.1561  -5.8142  -4.0901  -4.0740
    -3.5375  -0.7122  -0.3566   0.2724   0.7662   1.7207   1.7854   2.3302
     2.5169   2.7354   3.0575   3.1325   3.3658   3.4506   3.8836   4.2397
     4.3036   4.3406   4.6700   4.7713   5.0667   5.1612   5.5150   5.6400
     5.9112

     occupation numbers 
     1.0000   1.0000   1.0000   1.0000   1.0000   1.0000   0.9988   0.9980
     0.0034   0.0000   0.0000   0.0000   0.0000   0.0000   0.0000   0.0000
     0.0000   0.0000   0.0000   0.0000   0.0000   0.0000   0.0000   0.0000
     0.0000   0.0000   0.0000   0.0000   0.0000   0.0000   0.0000   0.0000
     0.0000

          k = 0.2500 0.0000-0.1750 ( 19980 PWs)   bands (ev):

   -80.3648 -47.3193 -47.3148 -47.3148 -14.1561  -5.8133  -4.0903  -4.0741
    -3.5433  -0.7095  -0.3537   0.3767   0.7296   1.6135   1.8873   2.0979
     2.4886   2.7697   2.9737   3.0854   3.3006   3.7913   3.9735   4.2302
     4.3982   4.4509   4.6623   4.8955   4.9052   5.1689   5.3446   5.4384
     5.7263

     occupation numbers 
     1.0000   1.0000   1.0000   1.0000   1.0000   1.0000   0.9988   0.9980
     0.0041   0.0000   0.0000   0.0000   0.0000   0.0000   0.0000   0.0000
     0.0000   0.0000   0.0000   0.0000   0.0000   0.0000   0.0000   0.0000
     0.0000   0.0000   0.0000   0.0000   0.0000   0.0000   0.0000   0.0000
     0.0000

          k = 0.2500 0.2500 0.0000 ( 19983 PWs)   bands (ev):

   -80.3648 -47.3193 -47.3148 -47.3148 -14.1560  -5.8091  -4.0893  -4.0881
    -3.5292  -0.6894  -0.6140   0.7436   0.8624   1.6520   1.8038   2.0597
     2.2598   2.4491   2.7983   3.0456   3.5224   3.7406   4.0373   4.1551
     4.4110   4.5498   4.8385   5.0303   5.0984   5.3946   5.4707   5.6919
     5.9149

     occupation numbers 
     1.0000   1.0000   1.0000   1.0000   1.0000   1.0000   0.9988   0.9987
     0.0026   0.0000   0.0000   0.0000   0.0000   0.0000   0.0000   0.0000
     0.0000   0.0000   0.0000   0.0000   0.0000   0.0000   0.0000   0.0000
     0.0000   0.0000   0.0000   0.0000   0.0000   0.0000   0.0000   0.0000
     0.0000

          k = 0.2500 0.2500 0.1750 ( 19985 PWs)   bands (ev):

   -80.3648 -47.3193 -47.3148 -47.3148 -14.1560  -5.8100  -4.0892  -4.0880
    -3.5238  -0.6921  -0.6175   0.5348   1.0306   1.7545   1.8680   1.9335
     2.3159   2.3299   3.0981   3.1916   3.3367   3.7606   4.0408   4.1355
     4.2744   4.5572   4.8005   4.8301   5.0010   5.3157   5.4850   5.5997
     5.9439

     occupation numbers 
     1.0000   1.0000   1.0000   1.0000   1.0000   1.0000   0.9988   0.9987
     0.0022   0.0000   0.0000   0.0000   0.0000   0.0000   0.0000   0.0000
     0.0000   0.0000   0.0000   0.0000   0.0000   0.0000   0.0000   0.0000
     0.0000   0.0000   0.0000   0.0000   0.0000   0.0000   0.0000   0.0000
     0.0000

          k = 0.2500 0.2500-0.3500 ( 19980 PWs)   bands (ev):

   -80.3648 -47.3193 -47.3148 -47.3148 -14.1560  -5.8108  -4.0891  -4.0879
    -3.5183  -0.6949  -0.6210   0.4236   1.1196   1.7731   1.8432   1.9871
     2.1452   2.6038   3.1292   3.3529   3.3627   3.7278   3.8006   4.0574
     4.4165   4.4221   4.6316   4.8006   5.0879   5.2833   5.5216   5.6490
     5.8263

     occupation numbers 
     1.0000   1.0000   1.0000   1.0000   1.0000   1.0000   0.9988   0.9987
     0.0018   0.0000   0.0000   0.0000   0.0000   0.0000   0.0000   0.0000
     0.0000   0.0000   0.0000   0.0000   0.0000   0.0000   0.0000   0.0000
     0.0000   0.0000   0.0000   0.0000   0.0000   0.0000   0.0000   0.0000
     0.0000

          k = 0.2500 0.2500-0.1750 ( 19985 PWs)   bands (ev):

   -80.3648 -47.3193 -47.3148 -47.3148 -14.1560  -5.8100  -4.0892  -4.0880
    -3.5238  -0.6921  -0.6175   0.5348   1.0306   1.7545   1.8680   1.9335
     2.3159   2.3299   3.0981   3.1916   3.3367   3.7606   4.0408   4.1355
     4.2744   4.5572   4.8005   4.8301   5.0010   5.3157   5.4850   5.5997
     5.9439

     occupation numbers 
     1.0000   1.0000   1.0000   1.0000   1.0000   1.0000   0.9988   0.9987
     0.0022   0.0000   0.0000   0.0000   0.0000   0.0000   0.0000   0.0000
     0.0000   0.0000   0.0000   0.0000   0.0000   0.0000   0.0000   0.0000
     0.0000   0.0000   0.0000   0.0000   0.0000   0.0000   0.0000   0.0000
     0.0000

          k = 0.2500-0.5000 0.0000 ( 20020 PWs)   bands (ev):

   -80.3648 -47.3193 -47.3148 -47.3148 -14.1559  -5.8058  -4.1028  -4.0870
    -3.5092  -0.8567  -0.5933   0.9571   1.0806   1.3511   1.6662   2.2100
     2.2870   2.5810   2.9311   3.0594   3.1353   3.5626   3.6423   4.2409
     4.4016   4.6934   4.8120   5.0558   5.5077   5.5569   5.7403   5.8547
     5.9855

     occupation numbers 
     1.0000   1.0000   1.0000   1.0000   1.0000   1.0000   0.9992   0.9987
     0.0014   0.0000   0.0000   0.0000   0.0000   0.0000   0.0000   0.0000
     0.0000   0.0000   0.0000   0.0000   0.0000   0.0000   0.0000   0.0000
     0.0000   0.0000   0.0000   0.0000   0.0000   0.0000   0.0000   0.0000
     0.0000

          k = 0.2500-0.5000 0.1750 ( 19978 PWs)   bands (ev):

   -80.3648 -47.3193 -47.3148 -47.3148 -14.1559  -5.8066  -4.1027  -4.0869
    -3.5040  -0.8605  -0.5967   0.7806   1.1315   1.5304   1.5622   2.2845
     2.3890   2.5111   2.8234   3.1922   3.2399   3.6633   3.7902   4.1960
     4.2501   4.6003   4.6037   5.1794   5.3295   5.3610   5.5788   5.5799
     5.8630

     occupation numbers 
     1.0000   1.0000   1.0000   1.0000   1.0000   1.0000   0.9992   0.9987
     0.0011   0.0000   0.0000   0.0000   0.0000   0.0000   0.0000   0.0000
     0.0000   0.0000   0.0000   0.0000   0.0000   0.0000   0.0000   0.0000
     0.0000   0.0000   0.0000   0.0000   0.0000   0.0000   0.0000   0.0000
     0.0000

          k = 0.2500-0.5000-0.3500 ( 19992 PWs)   bands (ev):

   -80.3648 -47.3193 -47.3148 -47.3148 -14.1559  -5.8074  -4.1025  -4.0868
    -3.4988  -0.8643  -0.6002   0.6674   1.2164   1.4305   1.6584   2.2608
     2.3928   2.6830   2.8033   3.2684   3.2925   3.7436   3.9757   4.0376
     4.1466   4.4723   4.7372   4.9069   4.9554   5.2992   5.4017   5.8564
     5.9459

     occupation numbers 
     1.0000   1.0000   1.0000   1.0000   1.0000   1.0000   0.9992   0.9987
     0.0009   0.0000   0.0000   0.0000   0.0000   0.0000   0.0000   0.0000
     0.0000   0.0000   0.0000   0.0000   0.0000   0.0000   0.0000   0.0000
     0.0000   0.0000   0.0000   0.0000   0.0000   0.0000   0.0000   0.0000
     0.0000

          k = 0.2500-0.5000-0.1750 ( 19978 PWs)   bands (ev):

   -80.3648 -47.3193 -47.3148 -47.3148 -14.1559  -5.8066  -4.1027  -4.0869
    -3.5040  -0.8605  -0.5967   0.7806   1.1315   1.5304   1.5622   2.2845
     2.3890   2.5111   2.8234   3.1922   3.2399   3.6633   3.7902   4.1960
     4.2501   4.6003   4.6037   5.1794   5.3295   5.3610   5.5788   5.5799
     5.8630

     occupation numbers 
     1.0000   1.0000   1.0000   1.0000   1.0000   1.0000   0.9992   0.9987
     0.0011   0.0000   0.0000   0.0000   0.0000   0.0000   0.0000   0.0000
     0.0000   0.0000   0.0000   0.0000   0.0000   0.0000   0.0000   0.0000
     0.0000   0.0000   0.0000   0.0000   0.0000   0.0000   0.0000   0.0000
     0.0000

          k = 0.2500-0.2500 0.0000 ( 19983 PWs)   bands (ev):

   -80.3648 -47.3193 -47.3148 -47.3148 -14.1560  -5.8091  -4.0893  -4.0881
    -3.5292  -0.6894  -0.6140   0.7436   0.8624   1.6520   1.8038   2.0597
     2.2598   2.4491   2.7983   3.0456   3.5224   3.7406   4.0373   4.1551
     4.4110   4.5498   4.8385   5.0303   5.0984   5.3946   5.4707   5.6919
     5.9149

     occupation numbers 
     1.0000   1.0000   1.0000   1.0000   1.0000   1.0000   0.9988   0.9987
     0.0026   0.0000   0.0000   0.0000   0.0000   0.0000   0.0000   0.0000
     0.0000   0.0000   0.0000   0.0000   0.0000   0.0000   0.0000   0.0000
     0.0000   0.0000   0.0000   0.0000   0.0000   0.0000   0.0000   0.0000
     0.0000

          k = 0.2500-0.2500 0.1750 ( 19985 PWs)   bands (ev):

   -80.3648 -47.3193 -47.3148 -47.3148 -14.1560  -5.8100  -4.0892  -4.0880
    -3.5238  -0.6921  -0.6175   0.5348   1.0306   1.7545   1.8680   1.9335
     2.3159   2.3299   3.0981   3.1916   3.3367   3.7606   4.0408   4.1355
     4.2744   4.5572   4.8005   4.8301   5.0010   5.3157   5.4850   5.5997
     5.9439

     occupation numbers 
     1.0000   1.0000   1.0000   1.0000   1.0000   1.0000   0.9988   0.9987
     0.0022   0.0000   0.0000   0.0000   0.0000   0.0000   0.0000   0.0000
     0.0000   0.0000   0.0000   0.0000   0.0000   0.0000   0.0000   0.0000
     0.0000   0.0000   0.0000   0.0000   0.0000   0.0000   0.0000   0.0000
     0.0000

          k = 0.2500-0.2500-0.3500 ( 19980 PWs)   bands (ev):

   -80.3648 -47.3193 -47.3148 -47.3148 -14.1560  -5.8108  -4.0891  -4.0879
    -3.5183  -0.6949  -0.6210   0.4236   1.1196   1.7731   1.8432   1.9871
     2.1452   2.6038   3.1292   3.3529   3.3627   3.7278   3.8006   4.0574
     4.4165   4.4221   4.6316   4.8006   5.0879   5.2833   5.5216   5.6490
     5.8263

     occupation numbers 
     1.0000   1.0000   1.0000   1.0000   1.0000   1.0000   0.9988   0.9987
     0.0018   0.0000   0.0000   0.0000   0.0000   0.0000   0.0000   0.0000
     0.0000   0.0000   0.0000   0.0000   0.0000   0.0000   0.0000   0.0000
     0.0000   0.0000   0.0000   0.0000   0.0000   0.0000   0.0000   0.0000
     0.0000

          k = 0.2500-0.2500-0.1750 ( 19985 PWs)   bands (ev):

   -80.3648 -47.3193 -47.3148 -47.3148 -14.1560  -5.8100  -4.0892  -4.0880
    -3.5238  -0.6921  -0.6175   0.5348   1.0306   1.7545   1.8680   1.9335
     2.3159   2.3299   3.0981   3.1916   3.3367   3.7606   4.0408   4.1355
     4.2744   4.5572   4.8005   4.8301   5.0010   5.3157   5.4850   5.5997
     5.9439

     occupation numbers 
     1.0000   1.0000   1.0000   1.0000   1.0000   1.0000   0.9988   0.9987
     0.0022   0.0000   0.0000   0.0000   0.0000   0.0000   0.0000   0.0000
     0.0000   0.0000   0.0000   0.0000   0.0000   0.0000   0.0000   0.0000
     0.0000   0.0000   0.0000   0.0000   0.0000   0.0000   0.0000   0.0000
     0.0000

          k =-0.5000 0.0000 0.0000 ( 20022 PWs)   bands (ev):

   -80.3648 -47.3193 -47.3148 -47.3148 -14.1560  -5.8090  -4.1049  -4.0728
    -3.5278  -0.9159  -0.3205   0.8269   0.9511   1.1922   1.9504   1.9857
     2.2004   2.4972   3.1739   3.1842   3.4759   3.5815   4.1018   4.1270
     4.2785   4.4313   4.6847   4.8450   4.9863   5.2398   5.4605   5.8010
     5.8090

     occupation numbers 
     1.0000   1.0000   1.0000   1.0000   1.0000   1.0000   0.9993   0.9979
     0.0025   0.0000   0.0000   0.0000   0.0000   0.0000   0.0000   0.0000
     0.0000   0.0000   0.0000   0.0000   0.0000   0.0000   0.0000   0.0000
     0.0000   0.0000   0.0000   0.0000   0.0000   0.0000   0.0000   0.0000
     0.0000

          k =-0.5000 0.0000 0.1750 ( 19978 PWs)   bands (ev):

   -80.3648 -47.3193 -47.3148 -47.3148 -14.1560  -5.8098  -4.1047  -4.0728
    -3.5224  -0.9196  -0.3233   0.6366   1.0565   1.2176   1.8414   2.2161
     2.2317   2.6981   3.0507   3.2681   3.5089   3.5260   3.7947   4.1951
     4.3028   4.4033   4.4558   4.8646   4.9508   5.3066   5.4460   5.6899
     5.9348

     occupation numbers 
     1.0000   1.0000   1.0000   1.0000   1.0000   1.0000   0.9993   0.9979
     0.0021   0.0000   0.0000   0.0000   0.0000   0.0000   0.0000   0.0000
     0.0000   0.0000   0.0000   0.0000   0.0000   0.0000   0.0000   0.0000
     0.0000   0.0000   0.0000   0.0000   0.0000   0.0000   0.0000   0.0000
     0.0000

          k =-0.5000 0.0000-0.3500 ( 19976 PWs)   bands (ev):

   -80.3648 -47.3193 -47.3148 -47.3148 -14.1560  -5.8107  -4.1045  -4.0727
    -3.5169  -0.9233  -0.3261   0.5255   1.0973   1.2481   1.7519   2.2329
     2.5063   2.9503   2.9881   3.3966   3.4080   3.5078   3.6387   4.0170
     4.0919   4.2134   4.2230   5.2013   5.3886   5.5137   5.6466   5.6762
     5.7108

     occupation numbers 
     1.0000   1.0000   1.0000   1.0000   1.0000   1.0000   0.9993   0.9979
     0.0018   0.0000   0.0000   0.0000   0.0000   0.0000   0.0000   0.0000
     0.0000   0.0000   0.0000   0.0000   0.0000   0.0000   0.0000   0.0000
     0.0000   0.0000   0.0000   0.0000   0.0000   0.0000   0.0000   0.0000
     0.0000

          k =-0.5000 0.0000-0.1750 ( 19978 PWs)   bands (ev):

   -80.3648 -47.3193 -47.3148 -47.3148 -14.1560  -5.8098  -4.1047  -4.0728
    -3.5224  -0.9196  -0.3233   0.6366   1.0565   1.2176   1.8414   2.2161
     2.2317   2.6981   3.0507   3.2681   3.5089   3.5260   3.7947   4.1951
     4.3028   4.4033   4.4558   4.8646   4.9508   5.3066   5.4460   5.6899
     5.9348

     occupation numbers 
     1.0000   1.0000   1.0000   1.0000   1.0000   1.0000   0.9993   0.9979
     0.0021   0.0000   0.0000   0.0000   0.0000   0.0000   0.0000   0.0000
     0.0000   0.0000   0.0000   0.0000   0.0000   0.0000   0.0000   0.0000
     0.0000   0.0000   0.0000   0.0000   0.0000   0.0000   0.0000   0.0000
     0.0000

          k =-0.5000 0.2500 0.0000 ( 20020 PWs)   bands (ev):

   -80.3648 -47.3193 -47.3148 -47.3148 -14.1559  -5.8058  -4.1028  -4.0870
    -3.5092  -0.8567  -0.5933   0.9571   1.0806   1.3511   1.6662   2.2100
     2.2870   2.5810   2.9311   3.0594   3.1353   3.5626   3.6423   4.2409
     4.4016   4.6934   4.8120   5.0558   5.5077   5.5569   5.7403   5.8547
     5.9855

     occupation numbers 
     1.0000   1.0000   1.0000   1.0000   1.0000   1.0000   0.9992   0.9987
     0.0014   0.0000   0.0000   0.0000   0.0000   0.0000   0.0000   0.0000
     0.0000   0.0000   0.0000   0.0000   0.0000   0.0000   0.0000   0.0000
     0.0000   0.0000   0.0000   0.0000   0.0000   0.0000   0.0000   0.0000
     0.0000

          k =-0.5000 0.2500 0.1750 ( 19978 PWs)   bands (ev):

   -80.3648 -47.3193 -47.3148 -47.3148 -14.1559  -5.8066  -4.1027  -4.0869
    -3.5040  -0.8605  -0.5967   0.7806   1.1315   1.5304   1.5622   2.2845
     2.3890   2.5111   2.8234   3.1922   3.2399   3.6633   3.7902   4.1960
     4.2501   4.6003   4.6037   5.1794   5.3295   5.3610   5.5788   5.5799
     5.8630

     occupation numbers 
     1.0000   1.0000   1.0000   1.0000   1.0000   1.0000   0.9992   0.9987
     0.0011   0.0000   0.0000   0.0000   0.0000   0.0000   0.0000   0.0000
     0.0000   0.0000   0.0000   0.0000   0.0000   0.0000   0.0000   0.0000
     0.0000   0.0000   0.0000   0.0000   0.0000   0.0000   0.0000   0.0000
     0.0000

          k =-0.5000 0.2500-0.3500 ( 19992 PWs)   bands (ev):

   -80.3648 -47.3193 -47.3148 -47.3148 -14.1559  -5.8074  -4.1025  -4.0868
    -3.4988  -0.8643  -0.6002   0.6674   1.2164   1.4305   1.6584   2.2608
     2.3928   2.6830   2.8033   3.2684   3.2925   3.7436   3.9757   4.0376
     4.1466   4.4723   4.7372   4.9069   4.9554   5.2992   5.4017   5.8564
     5.9459

     occupation numbers 
     1.0000   1.0000   1.0000   1.0000   1.0000   1.0000   0.9992   0.9987
     0.0009   0.0000   0.0000   0.0000   0.0000   0.0000   0.0000   0.0000
     0.0000   0.0000   0.0000   0.0000   0.0000   0.0000   0.0000   0.0000
     0.0000   0.0000   0.0000   0.0000   0.0000   0.0000   0.0000   0.0000
     0.0000

          k =-0.5000 0.2500-0.1750 ( 19978 PWs)   bands (ev):

   -80.3648 -47.3193 -47.3148 -47.3148 -14.1559  -5.8066  -4.1027  -4.0869
    -3.5040  -0.8605  -0.5967   0.7806   1.1315   1.5304   1.5622   2.2845
     2.3890   2.5111   2.8234   3.1922   3.2399   3.6633   3.7902   4.1960
     4.2501   4.6003   4.6037   5.1794   5.3295   5.3610   5.5788   5.5799
     5.8630

     occupation numbers 
     1.0000   1.0000   1.0000   1.0000   1.0000   1.0000   0.9992   0.9987
     0.0011   0.0000   0.0000   0.0000   0.0000   0.0000   0.0000   0.0000
     0.0000   0.0000   0.0000   0.0000   0.0000   0.0000   0.0000   0.0000
     0.0000   0.0000   0.0000   0.0000   0.0000   0.0000   0.0000   0.0000
     0.0000

          k =-0.5000-0.5000 0.0000 ( 20028 PWs)   bands (ev):

   -80.3648 -47.3193 -47.3148 -47.3148 -14.1559  -5.8026  -4.1008  -4.1008
    -3.4903  -0.7871  -0.7871   0.8515   1.1286   1.7419   1.7419   2.0709
     2.5108   2.5963   2.5963   2.7046   3.5087   3.5087   3.6316   3.6599
     4.7755   4.7978   4.7978   4.8010   5.9587   5.9587   6.0138   6.0678
     6.2457

     occupation numbers 
     1.0000   1.0000   1.0000   1.0000   1.0000   1.0000   0.9992   0.9992
     0.0007   0.0000   0.0000   0.0000   0.0000   0.0000   0.0000   0.0000
     0.0000   0.0000   0.0000   0.0000   0.0000   0.0000   0.0000   0.0000
     0.0000   0.0000   0.0000   0.0000   0.0000   0.0000   0.0000   0.0000
     0.0000

          k =-0.5000-0.5000 0.1750 ( 19944 PWs)   bands (ev):

   -80.3648 -47.3193 -47.3148 -47.3148 -14.1559  -5.8033  -4.1007  -4.1007
    -3.4853  -0.7912  -0.7912   0.8813   0.9822   1.7740   1.7740   2.1095
     2.3551   2.5814   2.5814   3.3159   3.5118   3.5118   3.5541   3.6636
     4.7160   4.7160   4.7725   4.7777   5.3495   5.7171   5.9696   5.9881
     5.9881

     occupation numbers 
     1.0000   1.0000   1.0000   1.0000   1.0000   1.0000   0.9992   0.9992
     0.0006   0.0000   0.0000   0.0000   0.0000   0.0000   0.0000   0.0000
     0.0000   0.0000   0.0000   0.0000   0.0000   0.0000   0.0000   0.0000
     0.0000   0.0000   0.0000   0.0000   0.0000   0.0000   0.0000   0.0000
     0.0000

          k =-0.5000-0.5000-0.3500 ( 20000 PWs)   bands (ev):

   -80.3648 -47.3193 -47.3148 -47.3148 -14.1559  -5.8041  -4.1006  -4.1006
    -3.4804  -0.7953  -0.7953   0.8739   0.9156   1.8082   1.8082   1.9220
     2.5630   2.5630   2.6609   3.4121   3.5233   3.5233   3.6673   4.1192
     4.2287   4.6102   4.6102   4.8540   4.9369   5.3550   5.8918   6.0278
     6.0278

     occupation numbers 
     1.0000   1.0000   1.0000   1.0000   1.0000   1.0000   0.9992   0.9992
     0.0005   0.0000   0.0000   0.0000   0.0000   0.0000   0.0000   0.0000
     0.0000   0.0000   0.0000   0.0000   0.0000   0.0000   0.0000   0.0000
     0.0000   0.0000   0.0000   0.0000   0.0000   0.0000   0.0000   0.0000
     0.0000

          k =-0.5000-0.5000-0.1750 ( 19944 PWs)   bands (ev):

   -80.3648 -47.3193 -47.3148 -47.3148 -14.1559  -5.8033  -4.1007  -4.1007
    -3.4853  -0.7912  -0.7912   0.8813   0.9822   1.7740   1.7740   2.1095
     2.3551   2.5814   2.5814   3.3159   3.5118   3.5118   3.5541   3.6636
     4.7160   4.7160   4.7725   4.7777   5.3495   5.7171   5.9696   5.9881
     5.9881

     occupation numbers 
     1.0000   1.0000   1.0000   1.0000   1.0000   1.0000   0.9992   0.9992
     0.0006   0.0000   0.0000   0.0000   0.0000   0.0000   0.0000   0.0000
     0.0000   0.0000   0.0000   0.0000   0.0000   0.0000   0.0000   0.0000
     0.0000   0.0000   0.0000   0.0000   0.0000   0.0000   0.0000   0.0000
     0.0000

          k =-0.5000-0.2500 0.0000 ( 20020 PWs)   bands (ev):

   -80.3648 -47.3193 -47.3148 -47.3148 -14.1559  -5.8058  -4.1028  -4.0870
    -3.5092  -0.8567  -0.5933   0.9571   1.0806   1.3511   1.6662   2.2100
     2.2870   2.5810   2.9311   3.0594   3.1353   3.5626   3.6423   4.2409
     4.4016   4.6934   4.8120   5.0558   5.5077   5.5569   5.7403   5.8547
     5.9855

     occupation numbers 
     1.0000   1.0000   1.0000   1.0000   1.0000   1.0000   0.9992   0.9987
     0.0014   0.0000   0.0000   0.0000   0.0000   0.0000   0.0000   0.0000
     0.0000   0.0000   0.0000   0.0000   0.0000   0.0000   0.0000   0.0000
     0.0000   0.0000   0.0000   0.0000   0.0000   0.0000   0.0000   0.0000
     0.0000

          k =-0.5000-0.2500 0.1750 ( 19978 PWs)   bands (ev):

   -80.3648 -47.3193 -47.3148 -47.3148 -14.1559  -5.8066  -4.1027  -4.0869
    -3.5040  -0.8605  -0.5967   0.7806   1.1315   1.5304   1.5622   2.2845
     2.3890   2.5111   2.8234   3.1922   3.2399   3.6633   3.7902   4.1960
     4.2501   4.6003   4.6037   5.1794   5.3295   5.3610   5.5788   5.5799
     5.8630

     occupation numbers 
     1.0000   1.0000   1.0000   1.0000   1.0000   1.0000   0.9992   0.9987
     0.0011   0.0000   0.0000   0.0000   0.0000   0.0000   0.0000   0.0000
     0.0000   0.0000   0.0000   0.0000   0.0000   0.0000   0.0000   0.0000
     0.0000   0.0000   0.0000   0.0000   0.0000   0.0000   0.0000   0.0000
     0.0000

          k =-0.5000-0.2500-0.3500 ( 19992 PWs)   bands (ev):

   -80.3648 -47.3193 -47.3148 -47.3148 -14.1559  -5.8074  -4.1025  -4.0868
    -3.4988  -0.8643  -0.6002   0.6674   1.2164   1.4305   1.6584   2.2608
     2.3928   2.6830   2.8033   3.2684   3.2925   3.7436   3.9757   4.0376
     4.1466   4.4723   4.7372   4.9069   4.9554   5.2992   5.4017   5.8564
     5.9459

     occupation numbers 
     1.0000   1.0000   1.0000   1.0000   1.0000   1.0000   0.9992   0.9987
     0.0009   0.0000   0.0000   0.0000   0.0000   0.0000   0.0000   0.0000
     0.0000   0.0000   0.0000   0.0000   0.0000   0.0000   0.0000   0.0000
     0.0000   0.0000   0.0000   0.0000   0.0000   0.0000   0.0000   0.0000
     0.0000

          k =-0.5000-0.2500-0.1750 ( 19978 PWs)   bands (ev):

   -80.3648 -47.3193 -47.3148 -47.3148 -14.1559  -5.8066  -4.1027  -4.0869
    -3.5040  -0.8605  -0.5967   0.7806   1.1315   1.5304   1.5622   2.2845
     2.3890   2.5111   2.8234   3.1922   3.2399   3.6633   3.7902   4.1960
     4.2501   4.6003   4.6037   5.1794   5.3295   5.3610   5.5788   5.5799
     5.8630

     occupation numbers 
     1.0000   1.0000   1.0000   1.0000   1.0000   1.0000   0.9992   0.9987
     0.0011   0.0000   0.0000   0.0000   0.0000   0.0000   0.0000   0.0000
     0.0000   0.0000   0.0000   0.0000   0.0000   0.0000   0.0000   0.0000
     0.0000   0.0000   0.0000   0.0000   0.0000   0.0000   0.0000   0.0000
     0.0000

          k =-0.2500 0.0000 0.0000 ( 19968 PWs)   bands (ev):

   -80.3648 -47.3193 -47.3148 -47.3148 -14.1561  -5.8124  -4.0904  -4.0741
    -3.5490  -0.7067  -0.3507   0.5595   0.6320   1.5419   1.7269   2.2297
     2.4621   2.5719   3.0403   3.1743   3.1977   3.8150   4.1322   4.1681
     4.4851   4.4921   4.7598   4.9572   5.1240   5.2210   5.2962   5.5692
     5.6400

     occupation numbers 
     1.0000   1.0000   1.0000   1.0000   1.0000   1.0000   0.9988   0.9980
     0.0049   0.0000   0.0000   0.0000   0.0000   0.0000   0.0000   0.0000
     0.0000   0.0000   0.0000   0.0000   0.0000   0.0000   0.0000   0.0000
     0.0000   0.0000   0.0000   0.0000   0.0000   0.0000   0.0000   0.0000
     0.0000

          k =-0.2500 0.0000 0.1750 ( 19980 PWs)   bands (ev):

   -80.3648 -47.3193 -47.3148 -47.3148 -14.1561  -5.8133  -4.0903  -4.0741
    -3.5433  -0.7095  -0.3537   0.3767   0.7296   1.6135   1.8873   2.0979
     2.4886   2.7697   2.9737   3.0854   3.3006   3.7913   3.9735   4.2302
     4.3982   4.4509   4.6623   4.8955   4.9052   5.1689   5.3446   5.4384
     5.7263

     occupation numbers 
     1.0000   1.0000   1.0000   1.0000   1.0000   1.0000   0.9988   0.9980
     0.0041   0.0000   0.0000   0.0000   0.0000   0.0000   0.0000   0.0000
     0.0000   0.0000   0.0000   0.0000   0.0000   0.0000   0.0000   0.0000
     0.0000   0.0000   0.0000   0.0000   0.0000   0.0000   0.0000   0.0000
     0.0000

          k =-0.2500 0.0000-0.3500 ( 19962 PWs)   bands (ev):

   -80.3648 -47.3193 -47.3148 -47.3148 -14.1561  -5.8142  -4.0901  -4.0740
    -3.5375  -0.7122  -0.3566   0.2724   0.7662   1.7207   1.7854   2.3302
     2.5169   2.7354   3.0575   3.1325   3.3658   3.4506   3.8836   4.2397
     4.3036   4.3406   4.6700   4.7713   5.0667   5.1612   5.5150   5.6400
     5.9112

     occupation numbers 
     1.0000   1.0000   1.0000   1.0000   1.0000   1.0000   0.9988   0.9980
     0.0034   0.0000   0.0000   0.0000   0.0000   0.0000   0.0000   0.0000
     0.0000   0.0000   0.0000   0.0000   0.0000   0.0000   0.0000   0.0000
     0.0000   0.0000   0.0000   0.0000   0.0000   0.0000   0.0000   0.0000
     0.0000

          k =-0.2500 0.0000-0.1750 ( 19980 PWs)   bands (ev):

   -80.3648 -47.3193 -47.3148 -47.3148 -14.1561  -5.8133  -4.0903  -4.0741
    -3.5433  -0.7095  -0.3537   0.3767   0.7296   1.6135   1.8873   2.0979
     2.4886   2.7697   2.9737   3.0854   3.3006   3.7913   3.9735   4.2302
     4.3982   4.4509   4.6623   4.8955   4.9052   5.1689   5.3446   5.4384
     5.7263

     occupation numbers 
     1.0000   1.0000   1.0000   1.0000   1.0000   1.0000   0.9988   0.9980
     0.0041   0.0000   0.0000   0.0000   0.0000   0.0000   0.0000   0.0000
     0.0000   0.0000   0.0000   0.0000   0.0000   0.0000   0.0000   0.0000
     0.0000   0.0000   0.0000   0.0000   0.0000   0.0000   0.0000   0.0000
     0.0000

          k =-0.2500 0.2500 0.0000 ( 19983 PWs)   bands (ev):

   -80.3648 -47.3193 -47.3148 -47.3148 -14.1560  -5.8091  -4.0893  -4.0881
    -3.5292  -0.6894  -0.6140   0.7436   0.8624   1.6520   1.8038   2.0597
     2.2598   2.4491   2.7983   3.0456   3.5224   3.7406   4.0373   4.1551
     4.4110   4.5498   4.8385   5.0303   5.0984   5.3946   5.4707   5.6919
     5.9149

     occupation numbers 
     1.0000   1.0000   1.0000   1.0000   1.0000   1.0000   0.9988   0.9987
     0.0026   0.0000   0.0000   0.0000   0.0000   0.0000   0.0000   0.0000
     0.0000   0.0000   0.0000   0.0000   0.0000   0.0000   0.0000   0.0000
     0.0000   0.0000   0.0000   0.0000   0.0000   0.0000   0.0000   0.0000
     0.0000

          k =-0.2500 0.2500 0.1750 ( 19985 PWs)   bands (ev):

   -80.3648 -47.3193 -47.3148 -47.3148 -14.1560  -5.8100  -4.0892  -4.0880
    -3.5238  -0.6921  -0.6175   0.5348   1.0306   1.7545   1.8680   1.9335
     2.3159   2.3299   3.0981   3.1916   3.3367   3.7606   4.0408   4.1355
     4.2744   4.5572   4.8005   4.8301   5.0010   5.3157   5.4850   5.5997
     5.9439

     occupation numbers 
     1.0000   1.0000   1.0000   1.0000   1.0000   1.0000   0.9988   0.9987
     0.0022   0.0000   0.0000   0.0000   0.0000   0.0000   0.0000   0.0000
     0.0000   0.0000   0.0000   0.0000   0.0000   0.0000   0.0000   0.0000
     0.0000   0.0000   0.0000   0.0000   0.0000   0.0000   0.0000   0.0000
     0.0000

          k =-0.2500 0.2500-0.3500 ( 19980 PWs)   bands (ev):

   -80.3648 -47.3193 -47.3148 -47.3148 -14.1560  -5.8108  -4.0891  -4.0879
    -3.5183  -0.6949  -0.6210   0.4236   1.1196   1.7731   1.8432   1.9871
     2.1452   2.6038   3.1292   3.3529   3.3627   3.7278   3.8006   4.0574
     4.4165   4.4221   4.6316   4.8006   5.0879   5.2833   5.5216   5.6490
     5.8263

     occupation numbers 
     1.0000   1.0000   1.0000   1.0000   1.0000   1.0000   0.9988   0.9987
     0.0018   0.0000   0.0000   0.0000   0.0000   0.0000   0.0000   0.0000
     0.0000   0.0000   0.0000   0.0000   0.0000   0.0000   0.0000   0.0000
     0.0000   0.0000   0.0000   0.0000   0.0000   0.0000   0.0000   0.0000
     0.0000

          k =-0.2500 0.2500-0.1750 ( 19985 PWs)   bands (ev):

   -80.3648 -47.3193 -47.3148 -47.3148 -14.1560  -5.8100  -4.0892  -4.0880
    -3.5238  -0.6921  -0.6175   0.5348   1.0306   1.7545   1.8680   1.9335
     2.3159   2.3299   3.0981   3.1916   3.3367   3.7606   4.0408   4.1355
     4.2744   4.5572   4.8005   4.8301   5.0010   5.3157   5.4850   5.5997
     5.9439

     occupation numbers 
     1.0000   1.0000   1.0000   1.0000   1.0000   1.0000   0.9988   0.9987
     0.0022   0.0000   0.0000   0.0000   0.0000   0.0000   0.0000   0.0000
     0.0000   0.0000   0.0000   0.0000   0.0000   0.0000   0.0000   0.0000
     0.0000   0.0000   0.0000   0.0000   0.0000   0.0000   0.0000   0.0000
     0.0000

          k =-0.2500-0.5000 0.0000 ( 20020 PWs)   bands (ev):

   -80.3648 -47.3193 -47.3148 -47.3148 -14.1559  -5.8058  -4.1028  -4.0870
    -3.5092  -0.8567  -0.5933   0.9571   1.0806   1.3511   1.6662   2.2100
     2.2870   2.5810   2.9311   3.0594   3.1353   3.5626   3.6423   4.2409
     4.4016   4.6934   4.8120   5.0558   5.5077   5.5569   5.7403   5.8547
     5.9855

     occupation numbers 
     1.0000   1.0000   1.0000   1.0000   1.0000   1.0000   0.9992   0.9987
     0.0014   0.0000   0.0000   0.0000   0.0000   0.0000   0.0000   0.0000
     0.0000   0.0000   0.0000   0.0000   0.0000   0.0000   0.0000   0.0000
     0.0000   0.0000   0.0000   0.0000   0.0000   0.0000   0.0000   0.0000
     0.0000

          k =-0.2500-0.5000 0.1750 ( 19978 PWs)   bands (ev):

   -80.3648 -47.3193 -47.3148 -47.3148 -14.1559  -5.8066  -4.1027  -4.0869
    -3.5040  -0.8605  -0.5967   0.7806   1.1315   1.5304   1.5622   2.2845
     2.3890   2.5111   2.8234   3.1922   3.2399   3.6633   3.7902   4.1960
     4.2501   4.6003   4.6037   5.1794   5.3295   5.3610   5.5788   5.5799
     5.8630

     occupation numbers 
     1.0000   1.0000   1.0000   1.0000   1.0000   1.0000   0.9992   0.9987
     0.0011   0.0000   0.0000   0.0000   0.0000   0.0000   0.0000   0.0000
     0.0000   0.0000   0.0000   0.0000   0.0000   0.0000   0.0000   0.0000
     0.0000   0.0000   0.0000   0.0000   0.0000   0.0000   0.0000   0.0000
     0.0000

          k =-0.2500-0.5000-0.3500 ( 19992 PWs)   bands (ev):

   -80.3648 -47.3193 -47.3148 -47.3148 -14.1559  -5.8074  -4.1025  -4.0868
    -3.4988  -0.8643  -0.6002   0.6674   1.2164   1.4305   1.6584   2.2608
     2.3928   2.6830   2.8033   3.2684   3.2925   3.7436   3.9757   4.0376
     4.1466   4.4723   4.7372   4.9069   4.9554   5.2992   5.4017   5.8564
     5.9459

     occupation numbers 
     1.0000   1.0000   1.0000   1.0000   1.0000   1.0000   0.9992   0.9987
     0.0009   0.0000   0.0000   0.0000   0.0000   0.0000   0.0000   0.0000
     0.0000   0.0000   0.0000   0.0000   0.0000   0.0000   0.0000   0.0000
     0.0000   0.0000   0.0000   0.0000   0.0000   0.0000   0.0000   0.0000
     0.0000

          k =-0.2500-0.5000-0.1750 ( 19978 PWs)   bands (ev):

   -80.3648 -47.3193 -47.3148 -47.3148 -14.1559  -5.8066  -4.1027  -4.0869
    -3.5040  -0.8605  -0.5967   0.7806   1.1315   1.5304   1.5622   2.2845
     2.3890   2.5111   2.8234   3.1922   3.2399   3.6633   3.7902   4.1960
     4.2501   4.6003   4.6037   5.1794   5.3295   5.3610   5.5788   5.5799
     5.8630

     occupation numbers 
     1.0000   1.0000   1.0000   1.0000   1.0000   1.0000   0.9992   0.9987
     0.0011   0.0000   0.0000   0.0000   0.0000   0.0000   0.0000   0.0000
     0.0000   0.0000   0.0000   0.0000   0.0000   0.0000   0.0000   0.0000
     0.0000   0.0000   0.0000   0.0000   0.0000   0.0000   0.0000   0.0000
     0.0000

          k =-0.2500-0.2500 0.0000 ( 19983 PWs)   bands (ev):

   -80.3648 -47.3193 -47.3148 -47.3148 -14.1560  -5.8091  -4.0893  -4.0881
    -3.5292  -0.6894  -0.6140   0.7436   0.8624   1.6520   1.8038   2.0597
     2.2598   2.4491   2.7983   3.0456   3.5224   3.7406   4.0373   4.1551
     4.4110   4.5498   4.8385   5.0303   5.0984   5.3946   5.4707   5.6919
     5.9149

     occupation numbers 
     1.0000   1.0000   1.0000   1.0000   1.0000   1.0000   0.9988   0.9987
     0.0026   0.0000   0.0000   0.0000   0.0000   0.0000   0.0000   0.0000
     0.0000   0.0000   0.0000   0.0000   0.0000   0.0000   0.0000   0.0000
     0.0000   0.0000   0.0000   0.0000   0.0000   0.0000   0.0000   0.0000
     0.0000

          k =-0.2500-0.2500 0.1750 ( 19985 PWs)   bands (ev):

   -80.3648 -47.3193 -47.3148 -47.3148 -14.1560  -5.8100  -4.0892  -4.0880
    -3.5238  -0.6921  -0.6175   0.5348   1.0306   1.7545   1.8680   1.9335
     2.3159   2.3299   3.0981   3.1916   3.3367   3.7606   4.0408   4.1355
     4.2744   4.5572   4.8005   4.8301   5.0010   5.3157   5.4850   5.5997
     5.9439

     occupation numbers 
     1.0000   1.0000   1.0000   1.0000   1.0000   1.0000   0.9988   0.9987
     0.0022   0.0000   0.0000   0.0000   0.0000   0.0000   0.0000   0.0000
     0.0000   0.0000   0.0000   0.0000   0.0000   0.0000   0.0000   0.0000
     0.0000   0.0000   0.0000   0.0000   0.0000   0.0000   0.0000   0.0000
     0.0000

          k =-0.2500-0.2500-0.3500 ( 19980 PWs)   bands (ev):

   -80.3648 -47.3193 -47.3148 -47.3148 -14.1560  -5.8108  -4.0891  -4.0879
    -3.5183  -0.6949  -0.6210   0.4236   1.1196   1.7731   1.8432   1.9871
     2.1452   2.6038   3.1292   3.3529   3.3627   3.7278   3.8006   4.0574
     4.4165   4.4221   4.6316   4.8006   5.0879   5.2833   5.5216   5.6490
     5.8263

     occupation numbers 
     1.0000   1.0000   1.0000   1.0000   1.0000   1.0000   0.9988   0.9987
     0.0018   0.0000   0.0000   0.0000   0.0000   0.0000   0.0000   0.0000
     0.0000   0.0000   0.0000   0.0000   0.0000   0.0000   0.0000   0.0000
     0.0000   0.0000   0.0000   0.0000   0.0000   0.0000   0.0000   0.0000
     0.0000

          k =-0.2500-0.2500-0.1750 ( 19985 PWs)   bands (ev):

   -80.3648 -47.3193 -47.3148 -47.3148 -14.1560  -5.8100  -4.0892  -4.0880
    -3.5238  -0.6921  -0.6175   0.5348   1.0306   1.7545   1.8680   1.9335
     2.3159   2.3299   3.0981   3.1916   3.3367   3.7606   4.0408   4.1355
     4.2744   4.5572   4.8005   4.8301   5.0010   5.3157   5.4850   5.5997
     5.9439

     occupation numbers 
     1.0000   1.0000   1.0000   1.0000   1.0000   1.0000   0.9988   0.9987
     0.0022   0.0000   0.0000   0.0000   0.0000   0.0000   0.0000   0.0000
     0.0000   0.0000   0.0000   0.0000   0.0000   0.0000   0.0000   0.0000
     0.0000   0.0000   0.0000   0.0000   0.0000   0.0000   0.0000   0.0000
     0.0000

     the Fermi energy is    -3.7977 ev

     Writing output data file /wrk/kfg/julia_data/MgS/dimer.in_vnscf_coords_5/qe.nscf.save/
 
     init_run     :      0.79s CPU      0.91s WALL (       1 calls)
     electrons    :    126.65s CPU    133.89s WALL (       1 calls)

     Called by init_run:
     wfcinit      :      0.00s CPU      0.00s WALL (       1 calls)
     wfcinit:atom :      0.04s CPU      0.05s WALL (      64 calls)
     wfcinit:wfcr :      3.51s CPU      3.80s WALL (      64 calls)
     potinit      :      0.06s CPU      0.08s WALL (       1 calls)
     hinit0       :      0.46s CPU      0.52s WALL (       1 calls)

     Called by electrons:
     c_bands      :    126.65s CPU    133.88s WALL (       1 calls)
     v_of_rho     :      0.05s CPU      0.06s WALL (       1 calls)
     v_h          :      0.00s CPU      0.00s WALL (       1 calls)
     v_xc         :      0.05s CPU      0.06s WALL (       1 calls)
     newd         :      0.20s CPU      0.24s WALL (       1 calls)

     Called by c_bands:
     init_us_2    :      0.10s CPU      0.11s WALL (      64 calls)
     cegterg      :    122.17s CPU    129.09s WALL (     178 calls)

     Called by sum_band:

     Called by *egterg:
     h_psi        :     70.54s CPU     76.88s WALL (    3332 calls)
     s_psi        :      2.73s CPU      2.79s WALL (    3332 calls)
     g_psi        :      1.25s CPU      1.25s WALL (    3090 calls)
     cdiaghg      :     17.22s CPU     17.51s WALL (    3154 calls)
     cegterg:over :     13.13s CPU     13.23s WALL (    3090 calls)
     cegterg:upda :     10.64s CPU     10.80s WALL (    3090 calls)
     cegterg:last :      7.48s CPU      7.53s WALL (     549 calls)
     cdiaghg:chol :      0.90s CPU      0.91s WALL (    3154 calls)
     cdiaghg:inve :      0.21s CPU      0.22s WALL (    3154 calls)
     cdiaghg:para :      2.10s CPU      2.25s WALL (    6308 calls)

     Called by h_psi:
     h_psi:calbec :      3.25s CPU      3.37s WALL (    3332 calls)
     vloc_psi     :     64.15s CPU     70.24s WALL (    3332 calls)
     add_vuspsi   :      2.71s CPU      2.74s WALL (    3332 calls)

     General routines
     calbec       :      3.24s CPU      3.35s WALL (    3332 calls)
     fft          :      0.03s CPU      0.03s WALL (      13 calls)
     ffts         :      0.00s CPU      0.00s WALL (       1 calls)
     fftw         :     57.99s CPU     63.62s WALL (  100342 calls)
     interpolate  :      0.00s CPU      0.00s WALL (       1 calls)
 
     Parallel routines
     fft_scatt_xy :      6.17s CPU      6.85s WALL (  100356 calls)
     fft_scatt_yz :     21.10s CPU     23.22s WALL (  100356 calls)
 
     PWSCF        :   2m 8.00s CPU   2m16.85s WALL

 
   This run was terminated on:  21:34:58  16Apr2020            

=------------------------------------------------------------------------------=
   JOB DONE.
=------------------------------------------------------------------------------=
