
     Program PWSCF v.6.5 starts on 16Apr2020 at 21: 2:39 

     This program is part of the open-source Quantum ESPRESSO suite
     for quantum simulation of materials; please cite
         "P. Giannozzi et al., J. Phys.:Condens. Matter 21 395502 (2009);
         "P. Giannozzi et al., J. Phys.:Condens. Matter 29 465901 (2017);
          URL http://www.quantum-espresso.org", 
     in publications or presentations arising from this work. More details at
     http://www.quantum-espresso.org/quote

     Parallel version (MPI), running on     8 processors

     MPI processes distributed on     1 nodes
     R & G space division:  proc/nbgrp/npool/nimage =       8
     Reading input from /wrk/kfg/julia_data/MgS/znse.in_vnscf_vol_3/qe.nscf.in
Warning: card &IONS ignored
Warning: card   ION_DYNAMICS='BFGS', ignored
Warning: card / ignored
Warning: card &CELL ignored
Warning: card  CELL_DYNAMICS = 'BFGS' ignored
Warning: card  CELL_DOFREE = 'ALL' ignored
Warning: card  CELL_FACTOR = 1.0 ignored
Warning: card / ignored
     Message from routine read_cards :
     DEPRECATED: no units specified in CELL_PARAMETERS card

     Current dimensions of program PWSCF are:
     Max number of different atomic species (ntypx) = 10
     Max number of k-points (npk) =  40000
     Max angular momentum in pseudopotentials (lmaxx) =  3
     Message from routine volume:
     axis vectors are left-handed

     Atomic positions and unit cell read from directory:
     /wrk/kfg/julia_data/MgS/znse.in_vnscf_vol_3/qe.nscf.save/                                                                                                                                                                                                       
     Message from routine volume:
     axis vectors are left-handed
 
               file mg.pbesol.UPF: wavefunction(s)  3P renormalized

     Subspace diagonalization in iterative solution of the eigenvalue problem:
     one sub-group per band group will be used
     scalapack distributed-memory algorithm (size of sub-group:  2*  2 procs)

 
     Parallelization info
     --------------------
     sticks:   dense  smooth     PW     G-vecs:    dense   smooth      PW
     Min         133      96     31                 2935     1790     329
     Max         134      97     32                 2940     1794     331
     Sum        1069     769    253                23505    14331    2637
 


     bravais-lattice index     =            0
     lattice parameter (alat)  =       7.9288  a.u.
     unit-cell volume          =     352.4632 (a.u.)^3
     number of atoms/cell      =            2
     number of atomic types    =            2
     number of electrons       =        16.00
     number of Kohn-Sham states=           33
     kinetic-energy cutoff     =      45.0000  Ry
     charge density cutoff     =     250.0000  Ry
     Exchange-correlation= SLA  PW   PSX  PSC
                           (   1   4  10   8   0   0   0)
     A smooth kinetic-energy cutoff is imposed at      44.5000 Ry
     height of the smooth step-function =             800.0000 Ry
     width of the smooth step-function  =               1.0000 Ry


     celldm(1)=   7.928839  celldm(2)=   0.000000  celldm(3)=   0.000000
     celldm(4)=   0.000000  celldm(5)=   0.000000  celldm(6)=   0.000000

     crystal axes: (cart. coord. in units of alat)
               a(1) = (   0.707107   0.707107   0.000000 )  
               a(2) = (   0.707107   0.000000   0.707107 )  
               a(3) = (   0.000000   0.707107   0.707107 )  

     reciprocal axes: (cart. coord. in units 2 pi/alat)
               b(1) = (  0.707107  0.707107 -0.707107 )  
               b(2) = (  0.707107 -0.707107  0.707107 )  
               b(3) = ( -0.707107  0.707107  0.707107 )  


     PseudoPot. # 1 for Mg read from file:
     /home/kfg/psuedo/gbrv_1.5/mg.pbesol.UPF
     MD5 check sum: cbba17e5274afd115179030b10be074e
     Pseudo is Ultrasoft, Zval = 10.0
     Generated by new atomic code, or converted to UPF format
     Using radial grid of  821 points,  7 beta functions with: 
                l(1) =   0
                l(2) =   0
                l(3) =   0
                l(4) =   1
                l(5) =   1
                l(6) =   2
                l(7) =   2
     Q(r) pseudized with  8 coefficients,  rinner =    1.200   1.200   1.200
                                                       1.200   1.200

     PseudoPot. # 2 for S  read from file:
     /home/kfg/psuedo/gbrv_1.5/s.pbesol.UPF
     MD5 check sum: 0ccfa86ec6eb59065d10aaae963ef2a7
     Pseudo is Ultrasoft + core correction, Zval =  6.0
     Generated by new atomic code, or converted to UPF format
     Using radial grid of  907 points,  6 beta functions with: 
                l(1) =   0
                l(2) =   0
                l(3) =   1
                l(4) =   1
                l(5) =   2
                l(6) =   2
     Q(r) pseudized with  8 coefficients,  rinner =    1.300   1.300   1.300
                                                       1.300   1.300

     atomic species   valence    mass     pseudopotential
        Mg            10.00    24.31000     Mg( 1.00)
        S              6.00    32.06000     S ( 1.00)

     No symmetry found


                                    s                        frac. trans.

      isym =  1     identity                                     

 cryst.   s( 1) = (     1          0          0      )
                  (     0          1          0      )
                  (     0          0          1      )

 cart.    s( 1) = (  1.0000000  0.0000000  0.0000000 )
                  (  0.0000000  1.0000000  0.0000000 )
                  (  0.0000000  0.0000000  1.0000000 )


   Cartesian axes

     site n.     atom                  positions (alat units)
         1           Mg  tau(   1) = (   0.0000000   0.0000000   0.0000000  )
         2           S   tau(   2) = (   0.3535534   0.3535534   0.3535534  )

   Crystallographic axes

     site n.     atom                  positions (cryst. coord.)
         1           Mg  tau(   1) = (  0.0000000  0.0000000  0.0000000  )
         2           S   tau(   2) = (  0.2500000  0.2500000  0.2500000  )

     number of k points=   512  Gaussian smearing, width (Ry)=  0.0100
                       cart. coord. in units 2pi/alat
        k(    1) = (   0.0000000   0.0000000   0.0000000), wk =   0.0039062
        k(    2) = (  -0.0883883   0.0883883   0.0883883), wk =   0.0039062
        k(    3) = (  -0.1767767   0.1767767   0.1767767), wk =   0.0039062
        k(    4) = (  -0.2651650   0.2651650   0.2651650), wk =   0.0039062
        k(    5) = (   0.3535534  -0.3535534  -0.3535534), wk =   0.0039062
        k(    6) = (   0.2651650  -0.2651650  -0.2651650), wk =   0.0039062
        k(    7) = (   0.1767767  -0.1767767  -0.1767767), wk =   0.0039062
        k(    8) = (   0.0883883  -0.0883883  -0.0883883), wk =   0.0039062
        k(    9) = (   0.0883883  -0.0883883   0.0883883), wk =   0.0039062
        k(   10) = (   0.0000000   0.0000000   0.1767767), wk =   0.0039062
        k(   11) = (  -0.0883883   0.0883883   0.2651650), wk =   0.0039062
        k(   12) = (  -0.1767767   0.1767767   0.3535534), wk =   0.0039062
        k(   13) = (   0.4419417  -0.4419417  -0.2651650), wk =   0.0039062
        k(   14) = (   0.3535534  -0.3535534  -0.1767767), wk =   0.0039062
        k(   15) = (   0.2651650  -0.2651650  -0.0883883), wk =   0.0039062
        k(   16) = (   0.1767767  -0.1767767   0.0000000), wk =   0.0039062
        k(   17) = (   0.1767767  -0.1767767   0.1767767), wk =   0.0039062
        k(   18) = (   0.0883883  -0.0883883   0.2651650), wk =   0.0039062
        k(   19) = (   0.0000000   0.0000000   0.3535534), wk =   0.0039062
        k(   20) = (  -0.0883883   0.0883883   0.4419417), wk =   0.0039062
        k(   21) = (   0.5303301  -0.5303301  -0.1767767), wk =   0.0039062
        k(   22) = (   0.4419417  -0.4419417  -0.0883883), wk =   0.0039062
        k(   23) = (   0.3535534  -0.3535534   0.0000000), wk =   0.0039062
        k(   24) = (   0.2651650  -0.2651650   0.0883883), wk =   0.0039062
        k(   25) = (   0.2651650  -0.2651650   0.2651650), wk =   0.0039062
        k(   26) = (   0.1767767  -0.1767767   0.3535534), wk =   0.0039062
        k(   27) = (   0.0883883  -0.0883883   0.4419417), wk =   0.0039062
        k(   28) = (   0.0000000   0.0000000   0.5303301), wk =   0.0039062
        k(   29) = (   0.6187184  -0.6187184  -0.0883883), wk =   0.0039062
        k(   30) = (   0.5303301  -0.5303301   0.0000000), wk =   0.0039062
        k(   31) = (   0.4419417  -0.4419417   0.0883883), wk =   0.0039062
        k(   32) = (   0.3535534  -0.3535534   0.1767767), wk =   0.0039062
        k(   33) = (  -0.3535534   0.3535534  -0.3535534), wk =   0.0039062
        k(   34) = (  -0.4419417   0.4419417  -0.2651650), wk =   0.0039062
        k(   35) = (  -0.5303301   0.5303301  -0.1767767), wk =   0.0039062
        k(   36) = (  -0.6187184   0.6187184  -0.0883883), wk =   0.0039062
        k(   37) = (   0.0000000   0.0000000  -0.7071068), wk =   0.0039062
        k(   38) = (  -0.0883883   0.0883883  -0.6187184), wk =   0.0039062
        k(   39) = (  -0.1767767   0.1767767  -0.5303301), wk =   0.0039062
        k(   40) = (  -0.2651650   0.2651650  -0.4419417), wk =   0.0039062
        k(   41) = (  -0.2651650   0.2651650  -0.2651650), wk =   0.0039062
        k(   42) = (  -0.3535534   0.3535534  -0.1767767), wk =   0.0039062
        k(   43) = (  -0.4419417   0.4419417  -0.0883883), wk =   0.0039062
        k(   44) = (  -0.5303301   0.5303301   0.0000000), wk =   0.0039062
        k(   45) = (   0.0883883  -0.0883883  -0.6187184), wk =   0.0039062
        k(   46) = (   0.0000000   0.0000000  -0.5303301), wk =   0.0039062
        k(   47) = (  -0.0883883   0.0883883  -0.4419417), wk =   0.0039062
        k(   48) = (  -0.1767767   0.1767767  -0.3535534), wk =   0.0039062
        k(   49) = (  -0.1767767   0.1767767  -0.1767767), wk =   0.0039062
        k(   50) = (  -0.2651650   0.2651650  -0.0883883), wk =   0.0039062
        k(   51) = (  -0.3535534   0.3535534   0.0000000), wk =   0.0039062
        k(   52) = (  -0.4419417   0.4419417   0.0883883), wk =   0.0039062
        k(   53) = (   0.1767767  -0.1767767  -0.5303301), wk =   0.0039062
        k(   54) = (   0.0883883  -0.0883883  -0.4419417), wk =   0.0039062
        k(   55) = (   0.0000000   0.0000000  -0.3535534), wk =   0.0039062
        k(   56) = (  -0.0883883   0.0883883  -0.2651650), wk =   0.0039062
        k(   57) = (  -0.0883883   0.0883883  -0.0883883), wk =   0.0039062
        k(   58) = (  -0.1767767   0.1767767   0.0000000), wk =   0.0039062
        k(   59) = (  -0.2651650   0.2651650   0.0883883), wk =   0.0039062
        k(   60) = (  -0.3535534   0.3535534   0.1767767), wk =   0.0039062
        k(   61) = (   0.2651650  -0.2651650  -0.4419417), wk =   0.0039062
        k(   62) = (   0.1767767  -0.1767767  -0.3535534), wk =   0.0039062
        k(   63) = (   0.0883883  -0.0883883  -0.2651650), wk =   0.0039062
        k(   64) = (   0.0000000   0.0000000  -0.1767767), wk =   0.0039062
        k(   65) = (   0.0883883   0.0883883  -0.0883883), wk =   0.0039062
        k(   66) = (   0.0000000   0.1767767   0.0000000), wk =   0.0039062
        k(   67) = (  -0.0883883   0.2651650   0.0883883), wk =   0.0039062
        k(   68) = (  -0.1767767   0.3535534   0.1767767), wk =   0.0039062
        k(   69) = (   0.4419417  -0.2651650  -0.4419417), wk =   0.0039062
        k(   70) = (   0.3535534  -0.1767767  -0.3535534), wk =   0.0039062
        k(   71) = (   0.2651650  -0.0883883  -0.2651650), wk =   0.0039062
        k(   72) = (   0.1767767   0.0000000  -0.1767767), wk =   0.0039062
        k(   73) = (   0.1767767   0.0000000   0.0000000), wk =   0.0039062
        k(   74) = (   0.0883883   0.0883883   0.0883883), wk =   0.0039062
        k(   75) = (   0.0000000   0.1767767   0.1767767), wk =   0.0039062
        k(   76) = (  -0.0883883   0.2651650   0.2651650), wk =   0.0039062
        k(   77) = (   0.5303301  -0.3535534  -0.3535534), wk =   0.0039062
        k(   78) = (   0.4419417  -0.2651650  -0.2651650), wk =   0.0039062
        k(   79) = (   0.3535534  -0.1767767  -0.1767767), wk =   0.0039062
        k(   80) = (   0.2651650  -0.0883883  -0.0883883), wk =   0.0039062
        k(   81) = (   0.2651650  -0.0883883   0.0883883), wk =   0.0039062
        k(   82) = (   0.1767767   0.0000000   0.1767767), wk =   0.0039062
        k(   83) = (   0.0883883   0.0883883   0.2651650), wk =   0.0039062
        k(   84) = (   0.0000000   0.1767767   0.3535534), wk =   0.0039062
        k(   85) = (   0.6187184  -0.4419417  -0.2651650), wk =   0.0039062
        k(   86) = (   0.5303301  -0.3535534  -0.1767767), wk =   0.0039062
        k(   87) = (   0.4419417  -0.2651650  -0.0883883), wk =   0.0039062
        k(   88) = (   0.3535534  -0.1767767   0.0000000), wk =   0.0039062
        k(   89) = (   0.3535534  -0.1767767   0.1767767), wk =   0.0039062
        k(   90) = (   0.2651650  -0.0883883   0.2651650), wk =   0.0039062
        k(   91) = (   0.1767767   0.0000000   0.3535534), wk =   0.0039062
        k(   92) = (   0.0883883   0.0883883   0.4419417), wk =   0.0039062
        k(   93) = (   0.7071068  -0.5303301  -0.1767767), wk =   0.0039062
        k(   94) = (   0.6187184  -0.4419417  -0.0883883), wk =   0.0039062
        k(   95) = (   0.5303301  -0.3535534  -0.0000000), wk =   0.0039062
        k(   96) = (   0.4419417  -0.2651650   0.0883883), wk =   0.0039062
        k(   97) = (  -0.2651650   0.4419417  -0.4419417), wk =   0.0039062
        k(   98) = (  -0.3535534   0.5303301  -0.3535534), wk =   0.0039062
        k(   99) = (  -0.4419417   0.6187184  -0.2651650), wk =   0.0039062
        k(  100) = (  -0.5303301   0.7071068  -0.1767767), wk =   0.0039062
        k(  101) = (   0.0883883   0.0883883  -0.7954951), wk =   0.0039062
        k(  102) = (   0.0000000   0.1767767  -0.7071068), wk =   0.0039062
        k(  103) = (  -0.0883883   0.2651650  -0.6187184), wk =   0.0039062
        k(  104) = (  -0.1767767   0.3535534  -0.5303301), wk =   0.0039062
        k(  105) = (  -0.1767767   0.3535534  -0.3535534), wk =   0.0039062
        k(  106) = (  -0.2651650   0.4419417  -0.2651650), wk =   0.0039062
        k(  107) = (  -0.3535534   0.5303301  -0.1767767), wk =   0.0039062
        k(  108) = (  -0.4419417   0.6187184  -0.0883883), wk =   0.0039062
        k(  109) = (   0.1767767   0.0000000  -0.7071068), wk =   0.0039062
        k(  110) = (   0.0883883   0.0883883  -0.6187184), wk =   0.0039062
        k(  111) = (   0.0000000   0.1767767  -0.5303301), wk =   0.0039062
        k(  112) = (  -0.0883883   0.2651650  -0.4419417), wk =   0.0039062
        k(  113) = (  -0.0883883   0.2651650  -0.2651650), wk =   0.0039062
        k(  114) = (  -0.1767767   0.3535534  -0.1767767), wk =   0.0039062
        k(  115) = (  -0.2651650   0.4419417  -0.0883883), wk =   0.0039062
        k(  116) = (  -0.3535534   0.5303301   0.0000000), wk =   0.0039062
        k(  117) = (   0.2651650  -0.0883883  -0.6187184), wk =   0.0039062
        k(  118) = (   0.1767767   0.0000000  -0.5303301), wk =   0.0039062
        k(  119) = (   0.0883883   0.0883883  -0.4419417), wk =   0.0039062
        k(  120) = (   0.0000000   0.1767767  -0.3535534), wk =   0.0039062
        k(  121) = (   0.0000000   0.1767767  -0.1767767), wk =   0.0039062
        k(  122) = (  -0.0883883   0.2651650  -0.0883883), wk =   0.0039062
        k(  123) = (  -0.1767767   0.3535534   0.0000000), wk =   0.0039062
        k(  124) = (  -0.2651650   0.4419417   0.0883883), wk =   0.0039062
        k(  125) = (   0.3535534  -0.1767767  -0.5303301), wk =   0.0039062
        k(  126) = (   0.2651650  -0.0883883  -0.4419417), wk =   0.0039062
        k(  127) = (   0.1767767   0.0000000  -0.3535534), wk =   0.0039062
        k(  128) = (   0.0883883   0.0883883  -0.2651650), wk =   0.0039062
        k(  129) = (   0.1767767   0.1767767  -0.1767767), wk =   0.0039062
        k(  130) = (   0.0883883   0.2651650  -0.0883883), wk =   0.0039062
        k(  131) = (   0.0000000   0.3535534   0.0000000), wk =   0.0039062
        k(  132) = (  -0.0883883   0.4419417   0.0883883), wk =   0.0039062
        k(  133) = (   0.5303301  -0.1767767  -0.5303301), wk =   0.0039062
        k(  134) = (   0.4419417  -0.0883883  -0.4419417), wk =   0.0039062
        k(  135) = (   0.3535534   0.0000000  -0.3535534), wk =   0.0039062
        k(  136) = (   0.2651650   0.0883883  -0.2651650), wk =   0.0039062
        k(  137) = (   0.2651650   0.0883883  -0.0883883), wk =   0.0039062
        k(  138) = (   0.1767767   0.1767767   0.0000000), wk =   0.0039062
        k(  139) = (   0.0883883   0.2651650   0.0883883), wk =   0.0039062
        k(  140) = (   0.0000000   0.3535534   0.1767767), wk =   0.0039062
        k(  141) = (   0.6187184  -0.2651650  -0.4419417), wk =   0.0039062
        k(  142) = (   0.5303301  -0.1767767  -0.3535534), wk =   0.0039062
        k(  143) = (   0.4419417  -0.0883883  -0.2651650), wk =   0.0039062
        k(  144) = (   0.3535534   0.0000000  -0.1767767), wk =   0.0039062
        k(  145) = (   0.3535534   0.0000000   0.0000000), wk =   0.0039062
        k(  146) = (   0.2651650   0.0883883   0.0883883), wk =   0.0039062
        k(  147) = (   0.1767767   0.1767767   0.1767767), wk =   0.0039062
        k(  148) = (   0.0883883   0.2651650   0.2651650), wk =   0.0039062
        k(  149) = (   0.7071068  -0.3535534  -0.3535534), wk =   0.0039062
        k(  150) = (   0.6187184  -0.2651650  -0.2651650), wk =   0.0039062
        k(  151) = (   0.5303301  -0.1767767  -0.1767767), wk =   0.0039062
        k(  152) = (   0.4419417  -0.0883883  -0.0883883), wk =   0.0039062
        k(  153) = (   0.4419417  -0.0883883   0.0883883), wk =   0.0039062
        k(  154) = (   0.3535534   0.0000000   0.1767767), wk =   0.0039062
        k(  155) = (   0.2651650   0.0883883   0.2651650), wk =   0.0039062
        k(  156) = (   0.1767767   0.1767767   0.3535534), wk =   0.0039062
        k(  157) = (   0.7954951  -0.4419417  -0.2651650), wk =   0.0039062
        k(  158) = (   0.7071068  -0.3535534  -0.1767767), wk =   0.0039062
        k(  159) = (   0.6187184  -0.2651650  -0.0883883), wk =   0.0039062
        k(  160) = (   0.5303301  -0.1767767  -0.0000000), wk =   0.0039062
        k(  161) = (  -0.1767767   0.5303301  -0.5303301), wk =   0.0039062
        k(  162) = (  -0.2651650   0.6187184  -0.4419417), wk =   0.0039062
        k(  163) = (  -0.3535534   0.7071068  -0.3535534), wk =   0.0039062
        k(  164) = (  -0.4419417   0.7954951  -0.2651650), wk =   0.0039062
        k(  165) = (   0.1767767   0.1767767  -0.8838835), wk =   0.0039062
        k(  166) = (   0.0883883   0.2651650  -0.7954951), wk =   0.0039062
        k(  167) = (   0.0000000   0.3535534  -0.7071068), wk =   0.0039062
        k(  168) = (  -0.0883883   0.4419417  -0.6187184), wk =   0.0039062
        k(  169) = (  -0.0883883   0.4419417  -0.4419417), wk =   0.0039062
        k(  170) = (  -0.1767767   0.5303301  -0.3535534), wk =   0.0039062
        k(  171) = (  -0.2651650   0.6187184  -0.2651650), wk =   0.0039062
        k(  172) = (  -0.3535534   0.7071068  -0.1767767), wk =   0.0039062
        k(  173) = (   0.2651650   0.0883883  -0.7954951), wk =   0.0039062
        k(  174) = (   0.1767767   0.1767767  -0.7071068), wk =   0.0039062
        k(  175) = (   0.0883883   0.2651650  -0.6187184), wk =   0.0039062
        k(  176) = (   0.0000000   0.3535534  -0.5303301), wk =   0.0039062
        k(  177) = (   0.0000000   0.3535534  -0.3535534), wk =   0.0039062
        k(  178) = (  -0.0883883   0.4419417  -0.2651650), wk =   0.0039062
        k(  179) = (  -0.1767767   0.5303301  -0.1767767), wk =   0.0039062
        k(  180) = (  -0.2651650   0.6187184  -0.0883883), wk =   0.0039062
        k(  181) = (   0.3535534   0.0000000  -0.7071068), wk =   0.0039062
        k(  182) = (   0.2651650   0.0883883  -0.6187184), wk =   0.0039062
        k(  183) = (   0.1767767   0.1767767  -0.5303301), wk =   0.0039062
        k(  184) = (   0.0883883   0.2651650  -0.4419417), wk =   0.0039062
        k(  185) = (   0.0883883   0.2651650  -0.2651650), wk =   0.0039062
        k(  186) = (   0.0000000   0.3535534  -0.1767767), wk =   0.0039062
        k(  187) = (  -0.0883883   0.4419417  -0.0883883), wk =   0.0039062
        k(  188) = (  -0.1767767   0.5303301   0.0000000), wk =   0.0039062
        k(  189) = (   0.4419417  -0.0883883  -0.6187184), wk =   0.0039062
        k(  190) = (   0.3535534   0.0000000  -0.5303301), wk =   0.0039062
        k(  191) = (   0.2651650   0.0883883  -0.4419417), wk =   0.0039062
        k(  192) = (   0.1767767   0.1767767  -0.3535534), wk =   0.0039062
        k(  193) = (   0.2651650   0.2651650  -0.2651650), wk =   0.0039062
        k(  194) = (   0.1767767   0.3535534  -0.1767767), wk =   0.0039062
        k(  195) = (   0.0883883   0.4419417  -0.0883883), wk =   0.0039062
        k(  196) = (   0.0000000   0.5303301   0.0000000), wk =   0.0039062
        k(  197) = (   0.6187184  -0.0883883  -0.6187184), wk =   0.0039062
        k(  198) = (   0.5303301   0.0000000  -0.5303301), wk =   0.0039062
        k(  199) = (   0.4419417   0.0883883  -0.4419417), wk =   0.0039062
        k(  200) = (   0.3535534   0.1767767  -0.3535534), wk =   0.0039062
        k(  201) = (   0.3535534   0.1767767  -0.1767767), wk =   0.0039062
        k(  202) = (   0.2651650   0.2651650  -0.0883883), wk =   0.0039062
        k(  203) = (   0.1767767   0.3535534   0.0000000), wk =   0.0039062
        k(  204) = (   0.0883883   0.4419417   0.0883883), wk =   0.0039062
        k(  205) = (   0.7071068  -0.1767767  -0.5303301), wk =   0.0039062
        k(  206) = (   0.6187184  -0.0883883  -0.4419417), wk =   0.0039062
        k(  207) = (   0.5303301  -0.0000000  -0.3535534), wk =   0.0039062
        k(  208) = (   0.4419417   0.0883883  -0.2651650), wk =   0.0039062
        k(  209) = (   0.4419417   0.0883883  -0.0883883), wk =   0.0039062
        k(  210) = (   0.3535534   0.1767767   0.0000000), wk =   0.0039062
        k(  211) = (   0.2651650   0.2651650   0.0883883), wk =   0.0039062
        k(  212) = (   0.1767767   0.3535534   0.1767767), wk =   0.0039062
        k(  213) = (   0.7954951  -0.2651650  -0.4419417), wk =   0.0039062
        k(  214) = (   0.7071068  -0.1767767  -0.3535534), wk =   0.0039062
        k(  215) = (   0.6187184  -0.0883883  -0.2651650), wk =   0.0039062
        k(  216) = (   0.5303301  -0.0000000  -0.1767767), wk =   0.0039062
        k(  217) = (   0.5303301   0.0000000   0.0000000), wk =   0.0039062
        k(  218) = (   0.4419417   0.0883883   0.0883883), wk =   0.0039062
        k(  219) = (   0.3535534   0.1767767   0.1767767), wk =   0.0039062
        k(  220) = (   0.2651650   0.2651650   0.2651650), wk =   0.0039062
        k(  221) = (   0.8838835  -0.3535534  -0.3535534), wk =   0.0039062
        k(  222) = (   0.7954951  -0.2651650  -0.2651650), wk =   0.0039062
        k(  223) = (   0.7071068  -0.1767767  -0.1767767), wk =   0.0039062
        k(  224) = (   0.6187184  -0.0883883  -0.0883883), wk =   0.0039062
        k(  225) = (  -0.0883883   0.6187184  -0.6187184), wk =   0.0039062
        k(  226) = (  -0.1767767   0.7071068  -0.5303301), wk =   0.0039062
        k(  227) = (  -0.2651650   0.7954951  -0.4419417), wk =   0.0039062
        k(  228) = (  -0.3535534   0.8838835  -0.3535534), wk =   0.0039062
        k(  229) = (   0.2651650   0.2651650  -0.9722718), wk =   0.0039062
        k(  230) = (   0.1767767   0.3535534  -0.8838835), wk =   0.0039062
        k(  231) = (   0.0883883   0.4419417  -0.7954951), wk =   0.0039062
        k(  232) = (  -0.0000000   0.5303301  -0.7071068), wk =   0.0039062
        k(  233) = (   0.0000000   0.5303301  -0.5303301), wk =   0.0039062
        k(  234) = (  -0.0883883   0.6187184  -0.4419417), wk =   0.0039062
        k(  235) = (  -0.1767767   0.7071068  -0.3535534), wk =   0.0039062
        k(  236) = (  -0.2651650   0.7954951  -0.2651650), wk =   0.0039062
        k(  237) = (   0.3535534   0.1767767  -0.8838835), wk =   0.0039062
        k(  238) = (   0.2651650   0.2651650  -0.7954951), wk =   0.0039062
        k(  239) = (   0.1767767   0.3535534  -0.7071068), wk =   0.0039062
        k(  240) = (   0.0883883   0.4419417  -0.6187184), wk =   0.0039062
        k(  241) = (   0.0883883   0.4419417  -0.4419417), wk =   0.0039062
        k(  242) = (  -0.0000000   0.5303301  -0.3535534), wk =   0.0039062
        k(  243) = (  -0.0883883   0.6187184  -0.2651650), wk =   0.0039062
        k(  244) = (  -0.1767767   0.7071068  -0.1767767), wk =   0.0039062
        k(  245) = (   0.4419417   0.0883883  -0.7954951), wk =   0.0039062
        k(  246) = (   0.3535534   0.1767767  -0.7071068), wk =   0.0039062
        k(  247) = (   0.2651650   0.2651650  -0.6187184), wk =   0.0039062
        k(  248) = (   0.1767767   0.3535534  -0.5303301), wk =   0.0039062
        k(  249) = (   0.1767767   0.3535534  -0.3535534), wk =   0.0039062
        k(  250) = (   0.0883883   0.4419417  -0.2651650), wk =   0.0039062
        k(  251) = (  -0.0000000   0.5303301  -0.1767767), wk =   0.0039062
        k(  252) = (  -0.0883883   0.6187184  -0.0883883), wk =   0.0039062
        k(  253) = (   0.5303301   0.0000000  -0.7071068), wk =   0.0039062
        k(  254) = (   0.4419417   0.0883883  -0.6187184), wk =   0.0039062
        k(  255) = (   0.3535534   0.1767767  -0.5303301), wk =   0.0039062
        k(  256) = (   0.2651650   0.2651650  -0.4419417), wk =   0.0039062
        k(  257) = (  -0.3535534  -0.3535534   0.3535534), wk =   0.0039062
        k(  258) = (  -0.4419417  -0.2651650   0.4419417), wk =   0.0039062
        k(  259) = (  -0.5303301  -0.1767767   0.5303301), wk =   0.0039062
        k(  260) = (  -0.6187184  -0.0883883   0.6187184), wk =   0.0039062
        k(  261) = (   0.0000000  -0.7071068   0.0000000), wk =   0.0039062
        k(  262) = (  -0.0883883  -0.6187184   0.0883883), wk =   0.0039062
        k(  263) = (  -0.1767767  -0.5303301   0.1767767), wk =   0.0039062
        k(  264) = (  -0.2651650  -0.4419417   0.2651650), wk =   0.0039062
        k(  265) = (  -0.2651650  -0.4419417   0.4419417), wk =   0.0039062
        k(  266) = (  -0.3535534  -0.3535534   0.5303301), wk =   0.0039062
        k(  267) = (  -0.4419417  -0.2651650   0.6187184), wk =   0.0039062
        k(  268) = (  -0.5303301  -0.1767767   0.7071068), wk =   0.0039062
        k(  269) = (   0.0883883  -0.7954951   0.0883883), wk =   0.0039062
        k(  270) = (   0.0000000  -0.7071068   0.1767767), wk =   0.0039062
        k(  271) = (  -0.0883883  -0.6187184   0.2651650), wk =   0.0039062
        k(  272) = (  -0.1767767  -0.5303301   0.3535534), wk =   0.0039062
        k(  273) = (  -0.1767767  -0.5303301   0.5303301), wk =   0.0039062
        k(  274) = (  -0.2651650  -0.4419417   0.6187184), wk =   0.0039062
        k(  275) = (  -0.3535534  -0.3535534   0.7071068), wk =   0.0039062
        k(  276) = (  -0.4419417  -0.2651650   0.7954951), wk =   0.0039062
        k(  277) = (   0.1767767  -0.8838835   0.1767767), wk =   0.0039062
        k(  278) = (   0.0883883  -0.7954951   0.2651650), wk =   0.0039062
        k(  279) = (   0.0000000  -0.7071068   0.3535534), wk =   0.0039062
        k(  280) = (  -0.0883883  -0.6187184   0.4419417), wk =   0.0039062
        k(  281) = (  -0.0883883  -0.6187184   0.6187184), wk =   0.0039062
        k(  282) = (  -0.1767767  -0.5303301   0.7071068), wk =   0.0039062
        k(  283) = (  -0.2651650  -0.4419417   0.7954951), wk =   0.0039062
        k(  284) = (  -0.3535534  -0.3535534   0.8838835), wk =   0.0039062
        k(  285) = (   0.2651650  -0.9722718   0.2651650), wk =   0.0039062
        k(  286) = (   0.1767767  -0.8838835   0.3535534), wk =   0.0039062
        k(  287) = (   0.0883883  -0.7954951   0.4419417), wk =   0.0039062
        k(  288) = (  -0.0000000  -0.7071068   0.5303301), wk =   0.0039062
        k(  289) = (  -0.7071068   0.0000000   0.0000000), wk =   0.0039062
        k(  290) = (  -0.7954951   0.0883883   0.0883883), wk =   0.0039062
        k(  291) = (  -0.8838835   0.1767767   0.1767767), wk =   0.0039062
        k(  292) = (  -0.9722718   0.2651650   0.2651650), wk =   0.0039062
        k(  293) = (  -0.3535534  -0.3535534  -0.3535534), wk =   0.0039062
        k(  294) = (  -0.4419417  -0.2651650  -0.2651650), wk =   0.0039062
        k(  295) = (  -0.5303301  -0.1767767  -0.1767767), wk =   0.0039062
        k(  296) = (  -0.6187184  -0.0883883  -0.0883883), wk =   0.0039062
        k(  297) = (  -0.6187184  -0.0883883   0.0883883), wk =   0.0039062
        k(  298) = (  -0.7071068  -0.0000000   0.1767767), wk =   0.0039062
        k(  299) = (  -0.7954951   0.0883883   0.2651650), wk =   0.0039062
        k(  300) = (  -0.8838835   0.1767767   0.3535534), wk =   0.0039062
        k(  301) = (  -0.2651650  -0.4419417  -0.2651650), wk =   0.0039062
        k(  302) = (  -0.3535534  -0.3535534  -0.1767767), wk =   0.0039062
        k(  303) = (  -0.4419417  -0.2651650  -0.0883883), wk =   0.0039062
        k(  304) = (  -0.5303301  -0.1767767   0.0000000), wk =   0.0039062
        k(  305) = (  -0.5303301  -0.1767767   0.1767767), wk =   0.0039062
        k(  306) = (  -0.6187184  -0.0883883   0.2651650), wk =   0.0039062
        k(  307) = (  -0.7071068   0.0000000   0.3535534), wk =   0.0039062
        k(  308) = (  -0.7954951   0.0883883   0.4419417), wk =   0.0039062
        k(  309) = (  -0.1767767  -0.5303301  -0.1767767), wk =   0.0039062
        k(  310) = (  -0.2651650  -0.4419417  -0.0883883), wk =   0.0039062
        k(  311) = (  -0.3535534  -0.3535534   0.0000000), wk =   0.0039062
        k(  312) = (  -0.4419417  -0.2651650   0.0883883), wk =   0.0039062
        k(  313) = (  -0.4419417  -0.2651650   0.2651650), wk =   0.0039062
        k(  314) = (  -0.5303301  -0.1767767   0.3535534), wk =   0.0039062
        k(  315) = (  -0.6187184  -0.0883883   0.4419417), wk =   0.0039062
        k(  316) = (  -0.7071068   0.0000000   0.5303301), wk =   0.0039062
        k(  317) = (  -0.0883883  -0.6187184  -0.0883883), wk =   0.0039062
        k(  318) = (  -0.1767767  -0.5303301   0.0000000), wk =   0.0039062
        k(  319) = (  -0.2651650  -0.4419417   0.0883883), wk =   0.0039062
        k(  320) = (  -0.3535534  -0.3535534   0.1767767), wk =   0.0039062
        k(  321) = (  -0.2651650  -0.2651650   0.2651650), wk =   0.0039062
        k(  322) = (  -0.3535534  -0.1767767   0.3535534), wk =   0.0039062
        k(  323) = (  -0.4419417  -0.0883883   0.4419417), wk =   0.0039062
        k(  324) = (  -0.5303301   0.0000000   0.5303301), wk =   0.0039062
        k(  325) = (   0.0883883  -0.6187184  -0.0883883), wk =   0.0039062
        k(  326) = (   0.0000000  -0.5303301   0.0000000), wk =   0.0039062
        k(  327) = (  -0.0883883  -0.4419417   0.0883883), wk =   0.0039062
        k(  328) = (  -0.1767767  -0.3535534   0.1767767), wk =   0.0039062
        k(  329) = (  -0.1767767  -0.3535534   0.3535534), wk =   0.0039062
        k(  330) = (  -0.2651650  -0.2651650   0.4419417), wk =   0.0039062
        k(  331) = (  -0.3535534  -0.1767767   0.5303301), wk =   0.0039062
        k(  332) = (  -0.4419417  -0.0883883   0.6187184), wk =   0.0039062
        k(  333) = (   0.1767767  -0.7071068   0.0000000), wk =   0.0039062
        k(  334) = (   0.0883883  -0.6187184   0.0883883), wk =   0.0039062
        k(  335) = (   0.0000000  -0.5303301   0.1767767), wk =   0.0039062
        k(  336) = (  -0.0883883  -0.4419417   0.2651650), wk =   0.0039062
        k(  337) = (  -0.0883883  -0.4419417   0.4419417), wk =   0.0039062
        k(  338) = (  -0.1767767  -0.3535534   0.5303301), wk =   0.0039062
        k(  339) = (  -0.2651650  -0.2651650   0.6187184), wk =   0.0039062
        k(  340) = (  -0.3535534  -0.1767767   0.7071068), wk =   0.0039062
        k(  341) = (   0.2651650  -0.7954951   0.0883883), wk =   0.0039062
        k(  342) = (   0.1767767  -0.7071068   0.1767767), wk =   0.0039062
        k(  343) = (   0.0883883  -0.6187184   0.2651650), wk =   0.0039062
        k(  344) = (   0.0000000  -0.5303301   0.3535534), wk =   0.0039062
        k(  345) = (   0.0000000  -0.5303301   0.5303301), wk =   0.0039062
        k(  346) = (  -0.0883883  -0.4419417   0.6187184), wk =   0.0039062
        k(  347) = (  -0.1767767  -0.3535534   0.7071068), wk =   0.0039062
        k(  348) = (  -0.2651650  -0.2651650   0.7954951), wk =   0.0039062
        k(  349) = (   0.3535534  -0.8838835   0.1767767), wk =   0.0039062
        k(  350) = (   0.2651650  -0.7954951   0.2651650), wk =   0.0039062
        k(  351) = (   0.1767767  -0.7071068   0.3535534), wk =   0.0039062
        k(  352) = (   0.0883883  -0.6187184   0.4419417), wk =   0.0039062
        k(  353) = (  -0.6187184   0.0883883  -0.0883883), wk =   0.0039062
        k(  354) = (  -0.7071068   0.1767767  -0.0000000), wk =   0.0039062
        k(  355) = (  -0.7954951   0.2651650   0.0883883), wk =   0.0039062
        k(  356) = (  -0.8838835   0.3535534   0.1767767), wk =   0.0039062
        k(  357) = (  -0.2651650  -0.2651650  -0.4419417), wk =   0.0039062
        k(  358) = (  -0.3535534  -0.1767767  -0.3535534), wk =   0.0039062
        k(  359) = (  -0.4419417  -0.0883883  -0.2651650), wk =   0.0039062
        k(  360) = (  -0.5303301   0.0000000  -0.1767767), wk =   0.0039062
        k(  361) = (  -0.5303301   0.0000000   0.0000000), wk =   0.0039062
        k(  362) = (  -0.6187184   0.0883883   0.0883883), wk =   0.0039062
        k(  363) = (  -0.7071068   0.1767767   0.1767767), wk =   0.0039062
        k(  364) = (  -0.7954951   0.2651650   0.2651650), wk =   0.0039062
        k(  365) = (  -0.1767767  -0.3535534  -0.3535534), wk =   0.0039062
        k(  366) = (  -0.2651650  -0.2651650  -0.2651650), wk =   0.0039062
        k(  367) = (  -0.3535534  -0.1767767  -0.1767767), wk =   0.0039062
        k(  368) = (  -0.4419417  -0.0883883  -0.0883883), wk =   0.0039062
        k(  369) = (  -0.4419417  -0.0883883   0.0883883), wk =   0.0039062
        k(  370) = (  -0.5303301   0.0000000   0.1767767), wk =   0.0039062
        k(  371) = (  -0.6187184   0.0883883   0.2651650), wk =   0.0039062
        k(  372) = (  -0.7071068   0.1767767   0.3535534), wk =   0.0039062
        k(  373) = (  -0.0883883  -0.4419417  -0.2651650), wk =   0.0039062
        k(  374) = (  -0.1767767  -0.3535534  -0.1767767), wk =   0.0039062
        k(  375) = (  -0.2651650  -0.2651650  -0.0883883), wk =   0.0039062
        k(  376) = (  -0.3535534  -0.1767767  -0.0000000), wk =   0.0039062
        k(  377) = (  -0.3535534  -0.1767767   0.1767767), wk =   0.0039062
        k(  378) = (  -0.4419417  -0.0883883   0.2651650), wk =   0.0039062
        k(  379) = (  -0.5303301   0.0000000   0.3535534), wk =   0.0039062
        k(  380) = (  -0.6187184   0.0883883   0.4419417), wk =   0.0039062
        k(  381) = (   0.0000000  -0.5303301  -0.1767767), wk =   0.0039062
        k(  382) = (  -0.0883883  -0.4419417  -0.0883883), wk =   0.0039062
        k(  383) = (  -0.1767767  -0.3535534  -0.0000000), wk =   0.0039062
        k(  384) = (  -0.2651650  -0.2651650   0.0883883), wk =   0.0039062
        k(  385) = (  -0.1767767  -0.1767767   0.1767767), wk =   0.0039062
        k(  386) = (  -0.2651650  -0.0883883   0.2651650), wk =   0.0039062
        k(  387) = (  -0.3535534   0.0000000   0.3535534), wk =   0.0039062
        k(  388) = (  -0.4419417   0.0883883   0.4419417), wk =   0.0039062
        k(  389) = (   0.1767767  -0.5303301  -0.1767767), wk =   0.0039062
        k(  390) = (   0.0883883  -0.4419417  -0.0883883), wk =   0.0039062
        k(  391) = (   0.0000000  -0.3535534   0.0000000), wk =   0.0039062
        k(  392) = (  -0.0883883  -0.2651650   0.0883883), wk =   0.0039062
        k(  393) = (  -0.0883883  -0.2651650   0.2651650), wk =   0.0039062
        k(  394) = (  -0.1767767  -0.1767767   0.3535534), wk =   0.0039062
        k(  395) = (  -0.2651650  -0.0883883   0.4419417), wk =   0.0039062
        k(  396) = (  -0.3535534   0.0000000   0.5303301), wk =   0.0039062
        k(  397) = (   0.2651650  -0.6187184  -0.0883883), wk =   0.0039062
        k(  398) = (   0.1767767  -0.5303301   0.0000000), wk =   0.0039062
        k(  399) = (   0.0883883  -0.4419417   0.0883883), wk =   0.0039062
        k(  400) = (   0.0000000  -0.3535534   0.1767767), wk =   0.0039062
        k(  401) = (   0.0000000  -0.3535534   0.3535534), wk =   0.0039062
        k(  402) = (  -0.0883883  -0.2651650   0.4419417), wk =   0.0039062
        k(  403) = (  -0.1767767  -0.1767767   0.5303301), wk =   0.0039062
        k(  404) = (  -0.2651650  -0.0883883   0.6187184), wk =   0.0039062
        k(  405) = (   0.3535534  -0.7071068   0.0000000), wk =   0.0039062
        k(  406) = (   0.2651650  -0.6187184   0.0883883), wk =   0.0039062
        k(  407) = (   0.1767767  -0.5303301   0.1767767), wk =   0.0039062
        k(  408) = (   0.0883883  -0.4419417   0.2651650), wk =   0.0039062
        k(  409) = (   0.0883883  -0.4419417   0.4419417), wk =   0.0039062
        k(  410) = (  -0.0000000  -0.3535534   0.5303301), wk =   0.0039062
        k(  411) = (  -0.0883883  -0.2651650   0.6187184), wk =   0.0039062
        k(  412) = (  -0.1767767  -0.1767767   0.7071068), wk =   0.0039062
        k(  413) = (   0.4419417  -0.7954951   0.0883883), wk =   0.0039062
        k(  414) = (   0.3535534  -0.7071068   0.1767767), wk =   0.0039062
        k(  415) = (   0.2651650  -0.6187184   0.2651650), wk =   0.0039062
        k(  416) = (   0.1767767  -0.5303301   0.3535534), wk =   0.0039062
        k(  417) = (  -0.5303301   0.1767767  -0.1767767), wk =   0.0039062
        k(  418) = (  -0.6187184   0.2651650  -0.0883883), wk =   0.0039062
        k(  419) = (  -0.7071068   0.3535534   0.0000000), wk =   0.0039062
        k(  420) = (  -0.7954951   0.4419417   0.0883883), wk =   0.0039062
        k(  421) = (  -0.1767767  -0.1767767  -0.5303301), wk =   0.0039062
        k(  422) = (  -0.2651650  -0.0883883  -0.4419417), wk =   0.0039062
        k(  423) = (  -0.3535534   0.0000000  -0.3535534), wk =   0.0039062
        k(  424) = (  -0.4419417   0.0883883  -0.2651650), wk =   0.0039062
        k(  425) = (  -0.4419417   0.0883883  -0.0883883), wk =   0.0039062
        k(  426) = (  -0.5303301   0.1767767   0.0000000), wk =   0.0039062
        k(  427) = (  -0.6187184   0.2651650   0.0883883), wk =   0.0039062
        k(  428) = (  -0.7071068   0.3535534   0.1767767), wk =   0.0039062
        k(  429) = (  -0.0883883  -0.2651650  -0.4419417), wk =   0.0039062
        k(  430) = (  -0.1767767  -0.1767767  -0.3535534), wk =   0.0039062
        k(  431) = (  -0.2651650  -0.0883883  -0.2651650), wk =   0.0039062
        k(  432) = (  -0.3535534  -0.0000000  -0.1767767), wk =   0.0039062
        k(  433) = (  -0.3535534   0.0000000   0.0000000), wk =   0.0039062
        k(  434) = (  -0.4419417   0.0883883   0.0883883), wk =   0.0039062
        k(  435) = (  -0.5303301   0.1767767   0.1767767), wk =   0.0039062
        k(  436) = (  -0.6187184   0.2651650   0.2651650), wk =   0.0039062
        k(  437) = (   0.0000000  -0.3535534  -0.3535534), wk =   0.0039062
        k(  438) = (  -0.0883883  -0.2651650  -0.2651650), wk =   0.0039062
        k(  439) = (  -0.1767767  -0.1767767  -0.1767767), wk =   0.0039062
        k(  440) = (  -0.2651650  -0.0883883  -0.0883883), wk =   0.0039062
        k(  441) = (  -0.2651650  -0.0883883   0.0883883), wk =   0.0039062
        k(  442) = (  -0.3535534   0.0000000   0.1767767), wk =   0.0039062
        k(  443) = (  -0.4419417   0.0883883   0.2651650), wk =   0.0039062
        k(  444) = (  -0.5303301   0.1767767   0.3535534), wk =   0.0039062
        k(  445) = (   0.0883883  -0.4419417  -0.2651650), wk =   0.0039062
        k(  446) = (   0.0000000  -0.3535534  -0.1767767), wk =   0.0039062
        k(  447) = (  -0.0883883  -0.2651650  -0.0883883), wk =   0.0039062
        k(  448) = (  -0.1767767  -0.1767767   0.0000000), wk =   0.0039062
        k(  449) = (  -0.0883883  -0.0883883   0.0883883), wk =   0.0039062
        k(  450) = (  -0.1767767   0.0000000   0.1767767), wk =   0.0039062
        k(  451) = (  -0.2651650   0.0883883   0.2651650), wk =   0.0039062
        k(  452) = (  -0.3535534   0.1767767   0.3535534), wk =   0.0039062
        k(  453) = (   0.2651650  -0.4419417  -0.2651650), wk =   0.0039062
        k(  454) = (   0.1767767  -0.3535534  -0.1767767), wk =   0.0039062
        k(  455) = (   0.0883883  -0.2651650  -0.0883883), wk =   0.0039062
        k(  456) = (   0.0000000  -0.1767767   0.0000000), wk =   0.0039062
        k(  457) = (   0.0000000  -0.1767767   0.1767767), wk =   0.0039062
        k(  458) = (  -0.0883883  -0.0883883   0.2651650), wk =   0.0039062
        k(  459) = (  -0.1767767   0.0000000   0.3535534), wk =   0.0039062
        k(  460) = (  -0.2651650   0.0883883   0.4419417), wk =   0.0039062
        k(  461) = (   0.3535534  -0.5303301  -0.1767767), wk =   0.0039062
        k(  462) = (   0.2651650  -0.4419417  -0.0883883), wk =   0.0039062
        k(  463) = (   0.1767767  -0.3535534   0.0000000), wk =   0.0039062
        k(  464) = (   0.0883883  -0.2651650   0.0883883), wk =   0.0039062
        k(  465) = (   0.0883883  -0.2651650   0.2651650), wk =   0.0039062
        k(  466) = (   0.0000000  -0.1767767   0.3535534), wk =   0.0039062
        k(  467) = (  -0.0883883  -0.0883883   0.4419417), wk =   0.0039062
        k(  468) = (  -0.1767767   0.0000000   0.5303301), wk =   0.0039062
        k(  469) = (   0.4419417  -0.6187184  -0.0883883), wk =   0.0039062
        k(  470) = (   0.3535534  -0.5303301   0.0000000), wk =   0.0039062
        k(  471) = (   0.2651650  -0.4419417   0.0883883), wk =   0.0039062
        k(  472) = (   0.1767767  -0.3535534   0.1767767), wk =   0.0039062
        k(  473) = (   0.1767767  -0.3535534   0.3535534), wk =   0.0039062
        k(  474) = (   0.0883883  -0.2651650   0.4419417), wk =   0.0039062
        k(  475) = (  -0.0000000  -0.1767767   0.5303301), wk =   0.0039062
        k(  476) = (  -0.0883883  -0.0883883   0.6187184), wk =   0.0039062
        k(  477) = (   0.5303301  -0.7071068   0.0000000), wk =   0.0039062
        k(  478) = (   0.4419417  -0.6187184   0.0883883), wk =   0.0039062
        k(  479) = (   0.3535534  -0.5303301   0.1767767), wk =   0.0039062
        k(  480) = (   0.2651650  -0.4419417   0.2651650), wk =   0.0039062
        k(  481) = (  -0.4419417   0.2651650  -0.2651650), wk =   0.0039062
        k(  482) = (  -0.5303301   0.3535534  -0.1767767), wk =   0.0039062
        k(  483) = (  -0.6187184   0.4419417  -0.0883883), wk =   0.0039062
        k(  484) = (  -0.7071068   0.5303301   0.0000000), wk =   0.0039062
        k(  485) = (  -0.0883883  -0.0883883  -0.6187184), wk =   0.0039062
        k(  486) = (  -0.1767767   0.0000000  -0.5303301), wk =   0.0039062
        k(  487) = (  -0.2651650   0.0883883  -0.4419417), wk =   0.0039062
        k(  488) = (  -0.3535534   0.1767767  -0.3535534), wk =   0.0039062
        k(  489) = (  -0.3535534   0.1767767  -0.1767767), wk =   0.0039062
        k(  490) = (  -0.4419417   0.2651650  -0.0883883), wk =   0.0039062
        k(  491) = (  -0.5303301   0.3535534   0.0000000), wk =   0.0039062
        k(  492) = (  -0.6187184   0.4419417   0.0883883), wk =   0.0039062
        k(  493) = (   0.0000000  -0.1767767  -0.5303301), wk =   0.0039062
        k(  494) = (  -0.0883883  -0.0883883  -0.4419417), wk =   0.0039062
        k(  495) = (  -0.1767767  -0.0000000  -0.3535534), wk =   0.0039062
        k(  496) = (  -0.2651650   0.0883883  -0.2651650), wk =   0.0039062
        k(  497) = (  -0.2651650   0.0883883  -0.0883883), wk =   0.0039062
        k(  498) = (  -0.3535534   0.1767767   0.0000000), wk =   0.0039062
        k(  499) = (  -0.4419417   0.2651650   0.0883883), wk =   0.0039062
        k(  500) = (  -0.5303301   0.3535534   0.1767767), wk =   0.0039062
        k(  501) = (   0.0883883  -0.2651650  -0.4419417), wk =   0.0039062
        k(  502) = (   0.0000000  -0.1767767  -0.3535534), wk =   0.0039062
        k(  503) = (  -0.0883883  -0.0883883  -0.2651650), wk =   0.0039062
        k(  504) = (  -0.1767767   0.0000000  -0.1767767), wk =   0.0039062
        k(  505) = (  -0.1767767   0.0000000   0.0000000), wk =   0.0039062
        k(  506) = (  -0.2651650   0.0883883   0.0883883), wk =   0.0039062
        k(  507) = (  -0.3535534   0.1767767   0.1767767), wk =   0.0039062
        k(  508) = (  -0.4419417   0.2651650   0.2651650), wk =   0.0039062
        k(  509) = (   0.1767767  -0.3535534  -0.3535534), wk =   0.0039062
        k(  510) = (   0.0883883  -0.2651650  -0.2651650), wk =   0.0039062
        k(  511) = (   0.0000000  -0.1767767  -0.1767767), wk =   0.0039062
        k(  512) = (  -0.0883883  -0.0883883  -0.0883883), wk =   0.0039062

                       cryst. coord.
        k(    1) = (   0.0000000   0.0000000   0.0000000), wk =   0.0039062
        k(    2) = (   0.0000000   0.0000000   0.1250000), wk =   0.0039062
        k(    3) = (   0.0000000   0.0000000   0.2500000), wk =   0.0039062
        k(    4) = (   0.0000000   0.0000000   0.3750000), wk =   0.0039062
        k(    5) = (   0.0000000   0.0000000  -0.5000000), wk =   0.0039062
        k(    6) = (   0.0000000   0.0000000  -0.3750000), wk =   0.0039062
        k(    7) = (   0.0000000   0.0000000  -0.2500000), wk =   0.0039062
        k(    8) = (   0.0000000   0.0000000  -0.1250000), wk =   0.0039062
        k(    9) = (   0.0000000   0.1250000   0.0000000), wk =   0.0039062
        k(   10) = (   0.0000000   0.1250000   0.1250000), wk =   0.0039062
        k(   11) = (   0.0000000   0.1250000   0.2500000), wk =   0.0039062
        k(   12) = (   0.0000000   0.1250000   0.3750000), wk =   0.0039062
        k(   13) = (   0.0000000   0.1250000  -0.5000000), wk =   0.0039062
        k(   14) = (   0.0000000   0.1250000  -0.3750000), wk =   0.0039062
        k(   15) = (   0.0000000   0.1250000  -0.2500000), wk =   0.0039062
        k(   16) = (   0.0000000   0.1250000  -0.1250000), wk =   0.0039062
        k(   17) = (   0.0000000   0.2500000   0.0000000), wk =   0.0039062
        k(   18) = (   0.0000000   0.2500000   0.1250000), wk =   0.0039062
        k(   19) = (   0.0000000   0.2500000   0.2500000), wk =   0.0039062
        k(   20) = (   0.0000000   0.2500000   0.3750000), wk =   0.0039062
        k(   21) = (   0.0000000   0.2500000  -0.5000000), wk =   0.0039062
        k(   22) = (   0.0000000   0.2500000  -0.3750000), wk =   0.0039062
        k(   23) = (   0.0000000   0.2500000  -0.2500000), wk =   0.0039062
        k(   24) = (   0.0000000   0.2500000  -0.1250000), wk =   0.0039062
        k(   25) = (   0.0000000   0.3750000   0.0000000), wk =   0.0039062
        k(   26) = (   0.0000000   0.3750000   0.1250000), wk =   0.0039062
        k(   27) = (   0.0000000   0.3750000   0.2500000), wk =   0.0039062
        k(   28) = (   0.0000000   0.3750000   0.3750000), wk =   0.0039062
        k(   29) = (   0.0000000   0.3750000  -0.5000000), wk =   0.0039062
        k(   30) = (   0.0000000   0.3750000  -0.3750000), wk =   0.0039062
        k(   31) = (   0.0000000   0.3750000  -0.2500000), wk =   0.0039062
        k(   32) = (   0.0000000   0.3750000  -0.1250000), wk =   0.0039062
        k(   33) = (   0.0000000  -0.5000000   0.0000000), wk =   0.0039062
        k(   34) = (   0.0000000  -0.5000000   0.1250000), wk =   0.0039062
        k(   35) = (   0.0000000  -0.5000000   0.2500000), wk =   0.0039062
        k(   36) = (   0.0000000  -0.5000000   0.3750000), wk =   0.0039062
        k(   37) = (   0.0000000  -0.5000000  -0.5000000), wk =   0.0039062
        k(   38) = (   0.0000000  -0.5000000  -0.3750000), wk =   0.0039062
        k(   39) = (   0.0000000  -0.5000000  -0.2500000), wk =   0.0039062
        k(   40) = (   0.0000000  -0.5000000  -0.1250000), wk =   0.0039062
        k(   41) = (   0.0000000  -0.3750000   0.0000000), wk =   0.0039062
        k(   42) = (   0.0000000  -0.3750000   0.1250000), wk =   0.0039062
        k(   43) = (   0.0000000  -0.3750000   0.2500000), wk =   0.0039062
        k(   44) = (   0.0000000  -0.3750000   0.3750000), wk =   0.0039062
        k(   45) = (   0.0000000  -0.3750000  -0.5000000), wk =   0.0039062
        k(   46) = (   0.0000000  -0.3750000  -0.3750000), wk =   0.0039062
        k(   47) = (   0.0000000  -0.3750000  -0.2500000), wk =   0.0039062
        k(   48) = (   0.0000000  -0.3750000  -0.1250000), wk =   0.0039062
        k(   49) = (   0.0000000  -0.2500000   0.0000000), wk =   0.0039062
        k(   50) = (   0.0000000  -0.2500000   0.1250000), wk =   0.0039062
        k(   51) = (   0.0000000  -0.2500000   0.2500000), wk =   0.0039062
        k(   52) = (   0.0000000  -0.2500000   0.3750000), wk =   0.0039062
        k(   53) = (   0.0000000  -0.2500000  -0.5000000), wk =   0.0039062
        k(   54) = (   0.0000000  -0.2500000  -0.3750000), wk =   0.0039062
        k(   55) = (   0.0000000  -0.2500000  -0.2500000), wk =   0.0039062
        k(   56) = (   0.0000000  -0.2500000  -0.1250000), wk =   0.0039062
        k(   57) = (   0.0000000  -0.1250000   0.0000000), wk =   0.0039062
        k(   58) = (   0.0000000  -0.1250000   0.1250000), wk =   0.0039062
        k(   59) = (   0.0000000  -0.1250000   0.2500000), wk =   0.0039062
        k(   60) = (   0.0000000  -0.1250000   0.3750000), wk =   0.0039062
        k(   61) = (   0.0000000  -0.1250000  -0.5000000), wk =   0.0039062
        k(   62) = (   0.0000000  -0.1250000  -0.3750000), wk =   0.0039062
        k(   63) = (   0.0000000  -0.1250000  -0.2500000), wk =   0.0039062
        k(   64) = (   0.0000000  -0.1250000  -0.1250000), wk =   0.0039062
        k(   65) = (   0.1250000   0.0000000   0.0000000), wk =   0.0039062
        k(   66) = (   0.1250000   0.0000000   0.1250000), wk =   0.0039062
        k(   67) = (   0.1250000   0.0000000   0.2500000), wk =   0.0039062
        k(   68) = (   0.1250000   0.0000000   0.3750000), wk =   0.0039062
        k(   69) = (   0.1250000   0.0000000  -0.5000000), wk =   0.0039062
        k(   70) = (   0.1250000   0.0000000  -0.3750000), wk =   0.0039062
        k(   71) = (   0.1250000   0.0000000  -0.2500000), wk =   0.0039062
        k(   72) = (   0.1250000   0.0000000  -0.1250000), wk =   0.0039062
        k(   73) = (   0.1250000   0.1250000   0.0000000), wk =   0.0039062
        k(   74) = (   0.1250000   0.1250000   0.1250000), wk =   0.0039062
        k(   75) = (   0.1250000   0.1250000   0.2500000), wk =   0.0039062
        k(   76) = (   0.1250000   0.1250000   0.3750000), wk =   0.0039062
        k(   77) = (   0.1250000   0.1250000  -0.5000000), wk =   0.0039062
        k(   78) = (   0.1250000   0.1250000  -0.3750000), wk =   0.0039062
        k(   79) = (   0.1250000   0.1250000  -0.2500000), wk =   0.0039062
        k(   80) = (   0.1250000   0.1250000  -0.1250000), wk =   0.0039062
        k(   81) = (   0.1250000   0.2500000   0.0000000), wk =   0.0039062
        k(   82) = (   0.1250000   0.2500000   0.1250000), wk =   0.0039062
        k(   83) = (   0.1250000   0.2500000   0.2500000), wk =   0.0039062
        k(   84) = (   0.1250000   0.2500000   0.3750000), wk =   0.0039062
        k(   85) = (   0.1250000   0.2500000  -0.5000000), wk =   0.0039062
        k(   86) = (   0.1250000   0.2500000  -0.3750000), wk =   0.0039062
        k(   87) = (   0.1250000   0.2500000  -0.2500000), wk =   0.0039062
        k(   88) = (   0.1250000   0.2500000  -0.1250000), wk =   0.0039062
        k(   89) = (   0.1250000   0.3750000   0.0000000), wk =   0.0039062
        k(   90) = (   0.1250000   0.3750000   0.1250000), wk =   0.0039062
        k(   91) = (   0.1250000   0.3750000   0.2500000), wk =   0.0039062
        k(   92) = (   0.1250000   0.3750000   0.3750000), wk =   0.0039062
        k(   93) = (   0.1250000   0.3750000  -0.5000000), wk =   0.0039062
        k(   94) = (   0.1250000   0.3750000  -0.3750000), wk =   0.0039062
        k(   95) = (   0.1250000   0.3750000  -0.2500000), wk =   0.0039062
        k(   96) = (   0.1250000   0.3750000  -0.1250000), wk =   0.0039062
        k(   97) = (   0.1250000  -0.5000000   0.0000000), wk =   0.0039062
        k(   98) = (   0.1250000  -0.5000000   0.1250000), wk =   0.0039062
        k(   99) = (   0.1250000  -0.5000000   0.2500000), wk =   0.0039062
        k(  100) = (   0.1250000  -0.5000000   0.3750000), wk =   0.0039062
        k(  101) = (   0.1250000  -0.5000000  -0.5000000), wk =   0.0039062
        k(  102) = (   0.1250000  -0.5000000  -0.3750000), wk =   0.0039062
        k(  103) = (   0.1250000  -0.5000000  -0.2500000), wk =   0.0039062
        k(  104) = (   0.1250000  -0.5000000  -0.1250000), wk =   0.0039062
        k(  105) = (   0.1250000  -0.3750000   0.0000000), wk =   0.0039062
        k(  106) = (   0.1250000  -0.3750000   0.1250000), wk =   0.0039062
        k(  107) = (   0.1250000  -0.3750000   0.2500000), wk =   0.0039062
        k(  108) = (   0.1250000  -0.3750000   0.3750000), wk =   0.0039062
        k(  109) = (   0.1250000  -0.3750000  -0.5000000), wk =   0.0039062
        k(  110) = (   0.1250000  -0.3750000  -0.3750000), wk =   0.0039062
        k(  111) = (   0.1250000  -0.3750000  -0.2500000), wk =   0.0039062
        k(  112) = (   0.1250000  -0.3750000  -0.1250000), wk =   0.0039062
        k(  113) = (   0.1250000  -0.2500000   0.0000000), wk =   0.0039062
        k(  114) = (   0.1250000  -0.2500000   0.1250000), wk =   0.0039062
        k(  115) = (   0.1250000  -0.2500000   0.2500000), wk =   0.0039062
        k(  116) = (   0.1250000  -0.2500000   0.3750000), wk =   0.0039062
        k(  117) = (   0.1250000  -0.2500000  -0.5000000), wk =   0.0039062
        k(  118) = (   0.1250000  -0.2500000  -0.3750000), wk =   0.0039062
        k(  119) = (   0.1250000  -0.2500000  -0.2500000), wk =   0.0039062
        k(  120) = (   0.1250000  -0.2500000  -0.1250000), wk =   0.0039062
        k(  121) = (   0.1250000  -0.1250000   0.0000000), wk =   0.0039062
        k(  122) = (   0.1250000  -0.1250000   0.1250000), wk =   0.0039062
        k(  123) = (   0.1250000  -0.1250000   0.2500000), wk =   0.0039062
        k(  124) = (   0.1250000  -0.1250000   0.3750000), wk =   0.0039062
        k(  125) = (   0.1250000  -0.1250000  -0.5000000), wk =   0.0039062
        k(  126) = (   0.1250000  -0.1250000  -0.3750000), wk =   0.0039062
        k(  127) = (   0.1250000  -0.1250000  -0.2500000), wk =   0.0039062
        k(  128) = (   0.1250000  -0.1250000  -0.1250000), wk =   0.0039062
        k(  129) = (   0.2500000   0.0000000   0.0000000), wk =   0.0039062
        k(  130) = (   0.2500000   0.0000000   0.1250000), wk =   0.0039062
        k(  131) = (   0.2500000   0.0000000   0.2500000), wk =   0.0039062
        k(  132) = (   0.2500000   0.0000000   0.3750000), wk =   0.0039062
        k(  133) = (   0.2500000   0.0000000  -0.5000000), wk =   0.0039062
        k(  134) = (   0.2500000   0.0000000  -0.3750000), wk =   0.0039062
        k(  135) = (   0.2500000   0.0000000  -0.2500000), wk =   0.0039062
        k(  136) = (   0.2500000   0.0000000  -0.1250000), wk =   0.0039062
        k(  137) = (   0.2500000   0.1250000   0.0000000), wk =   0.0039062
        k(  138) = (   0.2500000   0.1250000   0.1250000), wk =   0.0039062
        k(  139) = (   0.2500000   0.1250000   0.2500000), wk =   0.0039062
        k(  140) = (   0.2500000   0.1250000   0.3750000), wk =   0.0039062
        k(  141) = (   0.2500000   0.1250000  -0.5000000), wk =   0.0039062
        k(  142) = (   0.2500000   0.1250000  -0.3750000), wk =   0.0039062
        k(  143) = (   0.2500000   0.1250000  -0.2500000), wk =   0.0039062
        k(  144) = (   0.2500000   0.1250000  -0.1250000), wk =   0.0039062
        k(  145) = (   0.2500000   0.2500000   0.0000000), wk =   0.0039062
        k(  146) = (   0.2500000   0.2500000   0.1250000), wk =   0.0039062
        k(  147) = (   0.2500000   0.2500000   0.2500000), wk =   0.0039062
        k(  148) = (   0.2500000   0.2500000   0.3750000), wk =   0.0039062
        k(  149) = (   0.2500000   0.2500000  -0.5000000), wk =   0.0039062
        k(  150) = (   0.2500000   0.2500000  -0.3750000), wk =   0.0039062
        k(  151) = (   0.2500000   0.2500000  -0.2500000), wk =   0.0039062
        k(  152) = (   0.2500000   0.2500000  -0.1250000), wk =   0.0039062
        k(  153) = (   0.2500000   0.3750000   0.0000000), wk =   0.0039062
        k(  154) = (   0.2500000   0.3750000   0.1250000), wk =   0.0039062
        k(  155) = (   0.2500000   0.3750000   0.2500000), wk =   0.0039062
        k(  156) = (   0.2500000   0.3750000   0.3750000), wk =   0.0039062
        k(  157) = (   0.2500000   0.3750000  -0.5000000), wk =   0.0039062
        k(  158) = (   0.2500000   0.3750000  -0.3750000), wk =   0.0039062
        k(  159) = (   0.2500000   0.3750000  -0.2500000), wk =   0.0039062
        k(  160) = (   0.2500000   0.3750000  -0.1250000), wk =   0.0039062
        k(  161) = (   0.2500000  -0.5000000   0.0000000), wk =   0.0039062
        k(  162) = (   0.2500000  -0.5000000   0.1250000), wk =   0.0039062
        k(  163) = (   0.2500000  -0.5000000   0.2500000), wk =   0.0039062
        k(  164) = (   0.2500000  -0.5000000   0.3750000), wk =   0.0039062
        k(  165) = (   0.2500000  -0.5000000  -0.5000000), wk =   0.0039062
        k(  166) = (   0.2500000  -0.5000000  -0.3750000), wk =   0.0039062
        k(  167) = (   0.2500000  -0.5000000  -0.2500000), wk =   0.0039062
        k(  168) = (   0.2500000  -0.5000000  -0.1250000), wk =   0.0039062
        k(  169) = (   0.2500000  -0.3750000   0.0000000), wk =   0.0039062
        k(  170) = (   0.2500000  -0.3750000   0.1250000), wk =   0.0039062
        k(  171) = (   0.2500000  -0.3750000   0.2500000), wk =   0.0039062
        k(  172) = (   0.2500000  -0.3750000   0.3750000), wk =   0.0039062
        k(  173) = (   0.2500000  -0.3750000  -0.5000000), wk =   0.0039062
        k(  174) = (   0.2500000  -0.3750000  -0.3750000), wk =   0.0039062
        k(  175) = (   0.2500000  -0.3750000  -0.2500000), wk =   0.0039062
        k(  176) = (   0.2500000  -0.3750000  -0.1250000), wk =   0.0039062
        k(  177) = (   0.2500000  -0.2500000   0.0000000), wk =   0.0039062
        k(  178) = (   0.2500000  -0.2500000   0.1250000), wk =   0.0039062
        k(  179) = (   0.2500000  -0.2500000   0.2500000), wk =   0.0039062
        k(  180) = (   0.2500000  -0.2500000   0.3750000), wk =   0.0039062
        k(  181) = (   0.2500000  -0.2500000  -0.5000000), wk =   0.0039062
        k(  182) = (   0.2500000  -0.2500000  -0.3750000), wk =   0.0039062
        k(  183) = (   0.2500000  -0.2500000  -0.2500000), wk =   0.0039062
        k(  184) = (   0.2500000  -0.2500000  -0.1250000), wk =   0.0039062
        k(  185) = (   0.2500000  -0.1250000   0.0000000), wk =   0.0039062
        k(  186) = (   0.2500000  -0.1250000   0.1250000), wk =   0.0039062
        k(  187) = (   0.2500000  -0.1250000   0.2500000), wk =   0.0039062
        k(  188) = (   0.2500000  -0.1250000   0.3750000), wk =   0.0039062
        k(  189) = (   0.2500000  -0.1250000  -0.5000000), wk =   0.0039062
        k(  190) = (   0.2500000  -0.1250000  -0.3750000), wk =   0.0039062
        k(  191) = (   0.2500000  -0.1250000  -0.2500000), wk =   0.0039062
        k(  192) = (   0.2500000  -0.1250000  -0.1250000), wk =   0.0039062
        k(  193) = (   0.3750000   0.0000000   0.0000000), wk =   0.0039062
        k(  194) = (   0.3750000   0.0000000   0.1250000), wk =   0.0039062
        k(  195) = (   0.3750000   0.0000000   0.2500000), wk =   0.0039062
        k(  196) = (   0.3750000   0.0000000   0.3750000), wk =   0.0039062
        k(  197) = (   0.3750000   0.0000000  -0.5000000), wk =   0.0039062
        k(  198) = (   0.3750000   0.0000000  -0.3750000), wk =   0.0039062
        k(  199) = (   0.3750000   0.0000000  -0.2500000), wk =   0.0039062
        k(  200) = (   0.3750000   0.0000000  -0.1250000), wk =   0.0039062
        k(  201) = (   0.3750000   0.1250000   0.0000000), wk =   0.0039062
        k(  202) = (   0.3750000   0.1250000   0.1250000), wk =   0.0039062
        k(  203) = (   0.3750000   0.1250000   0.2500000), wk =   0.0039062
        k(  204) = (   0.3750000   0.1250000   0.3750000), wk =   0.0039062
        k(  205) = (   0.3750000   0.1250000  -0.5000000), wk =   0.0039062
        k(  206) = (   0.3750000   0.1250000  -0.3750000), wk =   0.0039062
        k(  207) = (   0.3750000   0.1250000  -0.2500000), wk =   0.0039062
        k(  208) = (   0.3750000   0.1250000  -0.1250000), wk =   0.0039062
        k(  209) = (   0.3750000   0.2500000   0.0000000), wk =   0.0039062
        k(  210) = (   0.3750000   0.2500000   0.1250000), wk =   0.0039062
        k(  211) = (   0.3750000   0.2500000   0.2500000), wk =   0.0039062
        k(  212) = (   0.3750000   0.2500000   0.3750000), wk =   0.0039062
        k(  213) = (   0.3750000   0.2500000  -0.5000000), wk =   0.0039062
        k(  214) = (   0.3750000   0.2500000  -0.3750000), wk =   0.0039062
        k(  215) = (   0.3750000   0.2500000  -0.2500000), wk =   0.0039062
        k(  216) = (   0.3750000   0.2500000  -0.1250000), wk =   0.0039062
        k(  217) = (   0.3750000   0.3750000   0.0000000), wk =   0.0039062
        k(  218) = (   0.3750000   0.3750000   0.1250000), wk =   0.0039062
        k(  219) = (   0.3750000   0.3750000   0.2500000), wk =   0.0039062
        k(  220) = (   0.3750000   0.3750000   0.3750000), wk =   0.0039062
        k(  221) = (   0.3750000   0.3750000  -0.5000000), wk =   0.0039062
        k(  222) = (   0.3750000   0.3750000  -0.3750000), wk =   0.0039062
        k(  223) = (   0.3750000   0.3750000  -0.2500000), wk =   0.0039062
        k(  224) = (   0.3750000   0.3750000  -0.1250000), wk =   0.0039062
        k(  225) = (   0.3750000  -0.5000000   0.0000000), wk =   0.0039062
        k(  226) = (   0.3750000  -0.5000000   0.1250000), wk =   0.0039062
        k(  227) = (   0.3750000  -0.5000000   0.2500000), wk =   0.0039062
        k(  228) = (   0.3750000  -0.5000000   0.3750000), wk =   0.0039062
        k(  229) = (   0.3750000  -0.5000000  -0.5000000), wk =   0.0039062
        k(  230) = (   0.3750000  -0.5000000  -0.3750000), wk =   0.0039062
        k(  231) = (   0.3750000  -0.5000000  -0.2500000), wk =   0.0039062
        k(  232) = (   0.3750000  -0.5000000  -0.1250000), wk =   0.0039062
        k(  233) = (   0.3750000  -0.3750000   0.0000000), wk =   0.0039062
        k(  234) = (   0.3750000  -0.3750000   0.1250000), wk =   0.0039062
        k(  235) = (   0.3750000  -0.3750000   0.2500000), wk =   0.0039062
        k(  236) = (   0.3750000  -0.3750000   0.3750000), wk =   0.0039062
        k(  237) = (   0.3750000  -0.3750000  -0.5000000), wk =   0.0039062
        k(  238) = (   0.3750000  -0.3750000  -0.3750000), wk =   0.0039062
        k(  239) = (   0.3750000  -0.3750000  -0.2500000), wk =   0.0039062
        k(  240) = (   0.3750000  -0.3750000  -0.1250000), wk =   0.0039062
        k(  241) = (   0.3750000  -0.2500000   0.0000000), wk =   0.0039062
        k(  242) = (   0.3750000  -0.2500000   0.1250000), wk =   0.0039062
        k(  243) = (   0.3750000  -0.2500000   0.2500000), wk =   0.0039062
        k(  244) = (   0.3750000  -0.2500000   0.3750000), wk =   0.0039062
        k(  245) = (   0.3750000  -0.2500000  -0.5000000), wk =   0.0039062
        k(  246) = (   0.3750000  -0.2500000  -0.3750000), wk =   0.0039062
        k(  247) = (   0.3750000  -0.2500000  -0.2500000), wk =   0.0039062
        k(  248) = (   0.3750000  -0.2500000  -0.1250000), wk =   0.0039062
        k(  249) = (   0.3750000  -0.1250000   0.0000000), wk =   0.0039062
        k(  250) = (   0.3750000  -0.1250000   0.1250000), wk =   0.0039062
        k(  251) = (   0.3750000  -0.1250000   0.2500000), wk =   0.0039062
        k(  252) = (   0.3750000  -0.1250000   0.3750000), wk =   0.0039062
        k(  253) = (   0.3750000  -0.1250000  -0.5000000), wk =   0.0039062
        k(  254) = (   0.3750000  -0.1250000  -0.3750000), wk =   0.0039062
        k(  255) = (   0.3750000  -0.1250000  -0.2500000), wk =   0.0039062
        k(  256) = (   0.3750000  -0.1250000  -0.1250000), wk =   0.0039062
        k(  257) = (  -0.5000000   0.0000000   0.0000000), wk =   0.0039062
        k(  258) = (  -0.5000000   0.0000000   0.1250000), wk =   0.0039062
        k(  259) = (  -0.5000000   0.0000000   0.2500000), wk =   0.0039062
        k(  260) = (  -0.5000000   0.0000000   0.3750000), wk =   0.0039062
        k(  261) = (  -0.5000000   0.0000000  -0.5000000), wk =   0.0039062
        k(  262) = (  -0.5000000   0.0000000  -0.3750000), wk =   0.0039062
        k(  263) = (  -0.5000000   0.0000000  -0.2500000), wk =   0.0039062
        k(  264) = (  -0.5000000   0.0000000  -0.1250000), wk =   0.0039062
        k(  265) = (  -0.5000000   0.1250000   0.0000000), wk =   0.0039062
        k(  266) = (  -0.5000000   0.1250000   0.1250000), wk =   0.0039062
        k(  267) = (  -0.5000000   0.1250000   0.2500000), wk =   0.0039062
        k(  268) = (  -0.5000000   0.1250000   0.3750000), wk =   0.0039062
        k(  269) = (  -0.5000000   0.1250000  -0.5000000), wk =   0.0039062
        k(  270) = (  -0.5000000   0.1250000  -0.3750000), wk =   0.0039062
        k(  271) = (  -0.5000000   0.1250000  -0.2500000), wk =   0.0039062
        k(  272) = (  -0.5000000   0.1250000  -0.1250000), wk =   0.0039062
        k(  273) = (  -0.5000000   0.2500000   0.0000000), wk =   0.0039062
        k(  274) = (  -0.5000000   0.2500000   0.1250000), wk =   0.0039062
        k(  275) = (  -0.5000000   0.2500000   0.2500000), wk =   0.0039062
        k(  276) = (  -0.5000000   0.2500000   0.3750000), wk =   0.0039062
        k(  277) = (  -0.5000000   0.2500000  -0.5000000), wk =   0.0039062
        k(  278) = (  -0.5000000   0.2500000  -0.3750000), wk =   0.0039062
        k(  279) = (  -0.5000000   0.2500000  -0.2500000), wk =   0.0039062
        k(  280) = (  -0.5000000   0.2500000  -0.1250000), wk =   0.0039062
        k(  281) = (  -0.5000000   0.3750000   0.0000000), wk =   0.0039062
        k(  282) = (  -0.5000000   0.3750000   0.1250000), wk =   0.0039062
        k(  283) = (  -0.5000000   0.3750000   0.2500000), wk =   0.0039062
        k(  284) = (  -0.5000000   0.3750000   0.3750000), wk =   0.0039062
        k(  285) = (  -0.5000000   0.3750000  -0.5000000), wk =   0.0039062
        k(  286) = (  -0.5000000   0.3750000  -0.3750000), wk =   0.0039062
        k(  287) = (  -0.5000000   0.3750000  -0.2500000), wk =   0.0039062
        k(  288) = (  -0.5000000   0.3750000  -0.1250000), wk =   0.0039062
        k(  289) = (  -0.5000000  -0.5000000   0.0000000), wk =   0.0039062
        k(  290) = (  -0.5000000  -0.5000000   0.1250000), wk =   0.0039062
        k(  291) = (  -0.5000000  -0.5000000   0.2500000), wk =   0.0039062
        k(  292) = (  -0.5000000  -0.5000000   0.3750000), wk =   0.0039062
        k(  293) = (  -0.5000000  -0.5000000  -0.5000000), wk =   0.0039062
        k(  294) = (  -0.5000000  -0.5000000  -0.3750000), wk =   0.0039062
        k(  295) = (  -0.5000000  -0.5000000  -0.2500000), wk =   0.0039062
        k(  296) = (  -0.5000000  -0.5000000  -0.1250000), wk =   0.0039062
        k(  297) = (  -0.5000000  -0.3750000   0.0000000), wk =   0.0039062
        k(  298) = (  -0.5000000  -0.3750000   0.1250000), wk =   0.0039062
        k(  299) = (  -0.5000000  -0.3750000   0.2500000), wk =   0.0039062
        k(  300) = (  -0.5000000  -0.3750000   0.3750000), wk =   0.0039062
        k(  301) = (  -0.5000000  -0.3750000  -0.5000000), wk =   0.0039062
        k(  302) = (  -0.5000000  -0.3750000  -0.3750000), wk =   0.0039062
        k(  303) = (  -0.5000000  -0.3750000  -0.2500000), wk =   0.0039062
        k(  304) = (  -0.5000000  -0.3750000  -0.1250000), wk =   0.0039062
        k(  305) = (  -0.5000000  -0.2500000   0.0000000), wk =   0.0039062
        k(  306) = (  -0.5000000  -0.2500000   0.1250000), wk =   0.0039062
        k(  307) = (  -0.5000000  -0.2500000   0.2500000), wk =   0.0039062
        k(  308) = (  -0.5000000  -0.2500000   0.3750000), wk =   0.0039062
        k(  309) = (  -0.5000000  -0.2500000  -0.5000000), wk =   0.0039062
        k(  310) = (  -0.5000000  -0.2500000  -0.3750000), wk =   0.0039062
        k(  311) = (  -0.5000000  -0.2500000  -0.2500000), wk =   0.0039062
        k(  312) = (  -0.5000000  -0.2500000  -0.1250000), wk =   0.0039062
        k(  313) = (  -0.5000000  -0.1250000   0.0000000), wk =   0.0039062
        k(  314) = (  -0.5000000  -0.1250000   0.1250000), wk =   0.0039062
        k(  315) = (  -0.5000000  -0.1250000   0.2500000), wk =   0.0039062
        k(  316) = (  -0.5000000  -0.1250000   0.3750000), wk =   0.0039062
        k(  317) = (  -0.5000000  -0.1250000  -0.5000000), wk =   0.0039062
        k(  318) = (  -0.5000000  -0.1250000  -0.3750000), wk =   0.0039062
        k(  319) = (  -0.5000000  -0.1250000  -0.2500000), wk =   0.0039062
        k(  320) = (  -0.5000000  -0.1250000  -0.1250000), wk =   0.0039062
        k(  321) = (  -0.3750000   0.0000000   0.0000000), wk =   0.0039062
        k(  322) = (  -0.3750000   0.0000000   0.1250000), wk =   0.0039062
        k(  323) = (  -0.3750000   0.0000000   0.2500000), wk =   0.0039062
        k(  324) = (  -0.3750000   0.0000000   0.3750000), wk =   0.0039062
        k(  325) = (  -0.3750000   0.0000000  -0.5000000), wk =   0.0039062
        k(  326) = (  -0.3750000   0.0000000  -0.3750000), wk =   0.0039062
        k(  327) = (  -0.3750000   0.0000000  -0.2500000), wk =   0.0039062
        k(  328) = (  -0.3750000   0.0000000  -0.1250000), wk =   0.0039062
        k(  329) = (  -0.3750000   0.1250000   0.0000000), wk =   0.0039062
        k(  330) = (  -0.3750000   0.1250000   0.1250000), wk =   0.0039062
        k(  331) = (  -0.3750000   0.1250000   0.2500000), wk =   0.0039062
        k(  332) = (  -0.3750000   0.1250000   0.3750000), wk =   0.0039062
        k(  333) = (  -0.3750000   0.1250000  -0.5000000), wk =   0.0039062
        k(  334) = (  -0.3750000   0.1250000  -0.3750000), wk =   0.0039062
        k(  335) = (  -0.3750000   0.1250000  -0.2500000), wk =   0.0039062
        k(  336) = (  -0.3750000   0.1250000  -0.1250000), wk =   0.0039062
        k(  337) = (  -0.3750000   0.2500000   0.0000000), wk =   0.0039062
        k(  338) = (  -0.3750000   0.2500000   0.1250000), wk =   0.0039062
        k(  339) = (  -0.3750000   0.2500000   0.2500000), wk =   0.0039062
        k(  340) = (  -0.3750000   0.2500000   0.3750000), wk =   0.0039062
        k(  341) = (  -0.3750000   0.2500000  -0.5000000), wk =   0.0039062
        k(  342) = (  -0.3750000   0.2500000  -0.3750000), wk =   0.0039062
        k(  343) = (  -0.3750000   0.2500000  -0.2500000), wk =   0.0039062
        k(  344) = (  -0.3750000   0.2500000  -0.1250000), wk =   0.0039062
        k(  345) = (  -0.3750000   0.3750000   0.0000000), wk =   0.0039062
        k(  346) = (  -0.3750000   0.3750000   0.1250000), wk =   0.0039062
        k(  347) = (  -0.3750000   0.3750000   0.2500000), wk =   0.0039062
        k(  348) = (  -0.3750000   0.3750000   0.3750000), wk =   0.0039062
        k(  349) = (  -0.3750000   0.3750000  -0.5000000), wk =   0.0039062
        k(  350) = (  -0.3750000   0.3750000  -0.3750000), wk =   0.0039062
        k(  351) = (  -0.3750000   0.3750000  -0.2500000), wk =   0.0039062
        k(  352) = (  -0.3750000   0.3750000  -0.1250000), wk =   0.0039062
        k(  353) = (  -0.3750000  -0.5000000   0.0000000), wk =   0.0039062
        k(  354) = (  -0.3750000  -0.5000000   0.1250000), wk =   0.0039062
        k(  355) = (  -0.3750000  -0.5000000   0.2500000), wk =   0.0039062
        k(  356) = (  -0.3750000  -0.5000000   0.3750000), wk =   0.0039062
        k(  357) = (  -0.3750000  -0.5000000  -0.5000000), wk =   0.0039062
        k(  358) = (  -0.3750000  -0.5000000  -0.3750000), wk =   0.0039062
        k(  359) = (  -0.3750000  -0.5000000  -0.2500000), wk =   0.0039062
        k(  360) = (  -0.3750000  -0.5000000  -0.1250000), wk =   0.0039062
        k(  361) = (  -0.3750000  -0.3750000   0.0000000), wk =   0.0039062
        k(  362) = (  -0.3750000  -0.3750000   0.1250000), wk =   0.0039062
        k(  363) = (  -0.3750000  -0.3750000   0.2500000), wk =   0.0039062
        k(  364) = (  -0.3750000  -0.3750000   0.3750000), wk =   0.0039062
        k(  365) = (  -0.3750000  -0.3750000  -0.5000000), wk =   0.0039062
        k(  366) = (  -0.3750000  -0.3750000  -0.3750000), wk =   0.0039062
        k(  367) = (  -0.3750000  -0.3750000  -0.2500000), wk =   0.0039062
        k(  368) = (  -0.3750000  -0.3750000  -0.1250000), wk =   0.0039062
        k(  369) = (  -0.3750000  -0.2500000   0.0000000), wk =   0.0039062
        k(  370) = (  -0.3750000  -0.2500000   0.1250000), wk =   0.0039062
        k(  371) = (  -0.3750000  -0.2500000   0.2500000), wk =   0.0039062
        k(  372) = (  -0.3750000  -0.2500000   0.3750000), wk =   0.0039062
        k(  373) = (  -0.3750000  -0.2500000  -0.5000000), wk =   0.0039062
        k(  374) = (  -0.3750000  -0.2500000  -0.3750000), wk =   0.0039062
        k(  375) = (  -0.3750000  -0.2500000  -0.2500000), wk =   0.0039062
        k(  376) = (  -0.3750000  -0.2500000  -0.1250000), wk =   0.0039062
        k(  377) = (  -0.3750000  -0.1250000   0.0000000), wk =   0.0039062
        k(  378) = (  -0.3750000  -0.1250000   0.1250000), wk =   0.0039062
        k(  379) = (  -0.3750000  -0.1250000   0.2500000), wk =   0.0039062
        k(  380) = (  -0.3750000  -0.1250000   0.3750000), wk =   0.0039062
        k(  381) = (  -0.3750000  -0.1250000  -0.5000000), wk =   0.0039062
        k(  382) = (  -0.3750000  -0.1250000  -0.3750000), wk =   0.0039062
        k(  383) = (  -0.3750000  -0.1250000  -0.2500000), wk =   0.0039062
        k(  384) = (  -0.3750000  -0.1250000  -0.1250000), wk =   0.0039062
        k(  385) = (  -0.2500000   0.0000000   0.0000000), wk =   0.0039062
        k(  386) = (  -0.2500000   0.0000000   0.1250000), wk =   0.0039062
        k(  387) = (  -0.2500000   0.0000000   0.2500000), wk =   0.0039062
        k(  388) = (  -0.2500000   0.0000000   0.3750000), wk =   0.0039062
        k(  389) = (  -0.2500000   0.0000000  -0.5000000), wk =   0.0039062
        k(  390) = (  -0.2500000   0.0000000  -0.3750000), wk =   0.0039062
        k(  391) = (  -0.2500000   0.0000000  -0.2500000), wk =   0.0039062
        k(  392) = (  -0.2500000   0.0000000  -0.1250000), wk =   0.0039062
        k(  393) = (  -0.2500000   0.1250000   0.0000000), wk =   0.0039062
        k(  394) = (  -0.2500000   0.1250000   0.1250000), wk =   0.0039062
        k(  395) = (  -0.2500000   0.1250000   0.2500000), wk =   0.0039062
        k(  396) = (  -0.2500000   0.1250000   0.3750000), wk =   0.0039062
        k(  397) = (  -0.2500000   0.1250000  -0.5000000), wk =   0.0039062
        k(  398) = (  -0.2500000   0.1250000  -0.3750000), wk =   0.0039062
        k(  399) = (  -0.2500000   0.1250000  -0.2500000), wk =   0.0039062
        k(  400) = (  -0.2500000   0.1250000  -0.1250000), wk =   0.0039062
        k(  401) = (  -0.2500000   0.2500000   0.0000000), wk =   0.0039062
        k(  402) = (  -0.2500000   0.2500000   0.1250000), wk =   0.0039062
        k(  403) = (  -0.2500000   0.2500000   0.2500000), wk =   0.0039062
        k(  404) = (  -0.2500000   0.2500000   0.3750000), wk =   0.0039062
        k(  405) = (  -0.2500000   0.2500000  -0.5000000), wk =   0.0039062
        k(  406) = (  -0.2500000   0.2500000  -0.3750000), wk =   0.0039062
        k(  407) = (  -0.2500000   0.2500000  -0.2500000), wk =   0.0039062
        k(  408) = (  -0.2500000   0.2500000  -0.1250000), wk =   0.0039062
        k(  409) = (  -0.2500000   0.3750000   0.0000000), wk =   0.0039062
        k(  410) = (  -0.2500000   0.3750000   0.1250000), wk =   0.0039062
        k(  411) = (  -0.2500000   0.3750000   0.2500000), wk =   0.0039062
        k(  412) = (  -0.2500000   0.3750000   0.3750000), wk =   0.0039062
        k(  413) = (  -0.2500000   0.3750000  -0.5000000), wk =   0.0039062
        k(  414) = (  -0.2500000   0.3750000  -0.3750000), wk =   0.0039062
        k(  415) = (  -0.2500000   0.3750000  -0.2500000), wk =   0.0039062
        k(  416) = (  -0.2500000   0.3750000  -0.1250000), wk =   0.0039062
        k(  417) = (  -0.2500000  -0.5000000   0.0000000), wk =   0.0039062
        k(  418) = (  -0.2500000  -0.5000000   0.1250000), wk =   0.0039062
        k(  419) = (  -0.2500000  -0.5000000   0.2500000), wk =   0.0039062
        k(  420) = (  -0.2500000  -0.5000000   0.3750000), wk =   0.0039062
        k(  421) = (  -0.2500000  -0.5000000  -0.5000000), wk =   0.0039062
        k(  422) = (  -0.2500000  -0.5000000  -0.3750000), wk =   0.0039062
        k(  423) = (  -0.2500000  -0.5000000  -0.2500000), wk =   0.0039062
        k(  424) = (  -0.2500000  -0.5000000  -0.1250000), wk =   0.0039062
        k(  425) = (  -0.2500000  -0.3750000   0.0000000), wk =   0.0039062
        k(  426) = (  -0.2500000  -0.3750000   0.1250000), wk =   0.0039062
        k(  427) = (  -0.2500000  -0.3750000   0.2500000), wk =   0.0039062
        k(  428) = (  -0.2500000  -0.3750000   0.3750000), wk =   0.0039062
        k(  429) = (  -0.2500000  -0.3750000  -0.5000000), wk =   0.0039062
        k(  430) = (  -0.2500000  -0.3750000  -0.3750000), wk =   0.0039062
        k(  431) = (  -0.2500000  -0.3750000  -0.2500000), wk =   0.0039062
        k(  432) = (  -0.2500000  -0.3750000  -0.1250000), wk =   0.0039062
        k(  433) = (  -0.2500000  -0.2500000   0.0000000), wk =   0.0039062
        k(  434) = (  -0.2500000  -0.2500000   0.1250000), wk =   0.0039062
        k(  435) = (  -0.2500000  -0.2500000   0.2500000), wk =   0.0039062
        k(  436) = (  -0.2500000  -0.2500000   0.3750000), wk =   0.0039062
        k(  437) = (  -0.2500000  -0.2500000  -0.5000000), wk =   0.0039062
        k(  438) = (  -0.2500000  -0.2500000  -0.3750000), wk =   0.0039062
        k(  439) = (  -0.2500000  -0.2500000  -0.2500000), wk =   0.0039062
        k(  440) = (  -0.2500000  -0.2500000  -0.1250000), wk =   0.0039062
        k(  441) = (  -0.2500000  -0.1250000   0.0000000), wk =   0.0039062
        k(  442) = (  -0.2500000  -0.1250000   0.1250000), wk =   0.0039062
        k(  443) = (  -0.2500000  -0.1250000   0.2500000), wk =   0.0039062
        k(  444) = (  -0.2500000  -0.1250000   0.3750000), wk =   0.0039062
        k(  445) = (  -0.2500000  -0.1250000  -0.5000000), wk =   0.0039062
        k(  446) = (  -0.2500000  -0.1250000  -0.3750000), wk =   0.0039062
        k(  447) = (  -0.2500000  -0.1250000  -0.2500000), wk =   0.0039062
        k(  448) = (  -0.2500000  -0.1250000  -0.1250000), wk =   0.0039062
        k(  449) = (  -0.1250000   0.0000000   0.0000000), wk =   0.0039062
        k(  450) = (  -0.1250000   0.0000000   0.1250000), wk =   0.0039062
        k(  451) = (  -0.1250000   0.0000000   0.2500000), wk =   0.0039062
        k(  452) = (  -0.1250000   0.0000000   0.3750000), wk =   0.0039062
        k(  453) = (  -0.1250000   0.0000000  -0.5000000), wk =   0.0039062
        k(  454) = (  -0.1250000   0.0000000  -0.3750000), wk =   0.0039062
        k(  455) = (  -0.1250000   0.0000000  -0.2500000), wk =   0.0039062
        k(  456) = (  -0.1250000   0.0000000  -0.1250000), wk =   0.0039062
        k(  457) = (  -0.1250000   0.1250000   0.0000000), wk =   0.0039062
[...]
     6.7220   8.5458   9.3389   9.8465  11.9115  13.5126  13.9605  16.7821
    16.7836  19.1160  19.2615  19.4147  20.7232  23.4415  23.8881  24.3653
    26.4992  26.7918  27.1387  29.4981  30.0829  30.4461  31.0519  32.3208
    33.3465

     occupation numbers 
     1.0000   1.0000   1.0000   1.0000   1.0000   1.0000   1.0000   1.0000
     0.0000   0.0000   0.0000   0.0000   0.0000   0.0000   0.0000   0.0000
     0.0000   0.0000   0.0000   0.0000   0.0000   0.0000   0.0000   0.0000
     0.0000   0.0000   0.0000   0.0000   0.0000   0.0000   0.0000   0.0000
     0.0000

          k =-0.4419 0.2652-0.0884 (  1798 PWs)   bands (ev):

   -72.0081 -38.9642 -38.9637 -38.9635  -8.4448  -0.3743   0.8593   1.4093
     7.3488   8.0803   9.1894  10.3747  11.9896  14.2779  15.0172  15.4824
    17.1336  18.5267  19.5692  20.7502  21.1468  22.7313  23.1736  24.7107
    25.6857  26.5870  27.6976  28.0693  29.5536  30.2427  30.9275  31.8162
    32.3743

     occupation numbers 
     1.0000   1.0000   1.0000   1.0000   1.0000   1.0000   1.0000   1.0000
     0.0000   0.0000   0.0000   0.0000   0.0000   0.0000   0.0000   0.0000
     0.0000   0.0000   0.0000   0.0000   0.0000   0.0000   0.0000   0.0000
     0.0000   0.0000   0.0000   0.0000   0.0000   0.0000   0.0000   0.0000
     0.0000

          k =-0.5303 0.3536 0.0000 (  1797 PWs)   bands (ev):

   -72.0081 -38.9642 -38.9639 -38.9636  -8.3442  -0.2680   0.3407   1.1859
     7.3843   8.3453   9.3536  10.7052  12.2528  13.0964  16.2358  16.7700
    17.1199  18.4746  19.2640  20.2494  21.3959  22.7474  23.4769  24.5233
    24.6714  26.7085  27.5798  27.8827  29.0467  29.2531  30.3932  31.5576
    31.8553

     occupation numbers 
     1.0000   1.0000   1.0000   1.0000   1.0000   1.0000   1.0000   1.0000
     0.0000   0.0000   0.0000   0.0000   0.0000   0.0000   0.0000   0.0000
     0.0000   0.0000   0.0000   0.0000   0.0000   0.0000   0.0000   0.0000
     0.0000   0.0000   0.0000   0.0000   0.0000   0.0000   0.0000   0.0000
     0.0000

          k =-0.6187 0.4419 0.0884 (  1794 PWs)   bands (ev):

   -72.0081 -38.9642 -38.9639 -38.9637  -8.3190  -0.3178   0.4341   1.0335
     6.9365   8.3950   9.6459  10.8451  12.3965  14.0911  15.1449  16.7430
    17.6186  18.1666  19.8551  20.3006  21.3765  22.0278  23.4427  24.0559
    24.7240  26.3792  27.2280  28.3338  29.0476  29.3431  30.3427  31.5375
    32.5282

     occupation numbers 
     1.0000   1.0000   1.0000   1.0000   1.0000   1.0000   1.0000   1.0000
     0.0000   0.0000   0.0000   0.0000   0.0000   0.0000   0.0000   0.0000
     0.0000   0.0000   0.0000   0.0000   0.0000   0.0000   0.0000   0.0000
     0.0000   0.0000   0.0000   0.0000   0.0000   0.0000   0.0000   0.0000
     0.0000

          k = 0.0000-0.1768-0.5303 (  1791 PWs)   bands (ev):

   -72.0081 -38.9642 -38.9637 -38.9636  -8.3864  -0.3425   0.8382   1.1060
     6.6250   7.9172   9.6278  11.5349  12.1058  14.6015  15.2085  16.1412
    17.2164  18.1567  19.2767  19.9733  21.3906  22.0982  23.1619  24.2798
    25.0006  26.2462  28.2372  28.5156  28.8028  29.8787  31.0469  31.4696
    32.7026

     occupation numbers 
     1.0000   1.0000   1.0000   1.0000   1.0000   1.0000   1.0000   1.0000
     0.0000   0.0000   0.0000   0.0000   0.0000   0.0000   0.0000   0.0000
     0.0000   0.0000   0.0000   0.0000   0.0000   0.0000   0.0000   0.0000
     0.0000   0.0000   0.0000   0.0000   0.0000   0.0000   0.0000   0.0000
     0.0000

          k =-0.0884-0.0884-0.4419 (  1785 PWs)   bands (ev):

   -72.0081 -38.9641 -38.9636 -38.9636  -8.5027  -0.1611   1.1456   1.2751
     6.6124   7.8590   9.5452  10.9030  11.7291  13.9930  15.5020  16.4581
    17.2655  18.2675  18.8773  19.6046  20.7464  21.2591  23.3577  25.6586
    25.9428  26.9791  27.5751  28.9600  29.2594  30.2049  31.0881  32.1011
    32.9082

     occupation numbers 
     1.0000   1.0000   1.0000   1.0000   1.0000   1.0000   1.0000   1.0000
     0.0000   0.0000   0.0000   0.0000   0.0000   0.0000   0.0000   0.0000
     0.0000   0.0000   0.0000   0.0000   0.0000   0.0000   0.0000   0.0000
     0.0000   0.0000   0.0000   0.0000   0.0000   0.0000   0.0000   0.0000
     0.0000

          k =-0.1768-0.0000-0.3536 (  1802 PWs)   bands (ev):

   -72.0081 -38.9640 -38.9636 -38.9634  -8.5974   0.0375   1.1657   1.5581
     6.8829   8.2165   9.1309  10.4497  11.0450  13.5199  15.2874  15.8388
    17.3500  18.3364  18.9239  20.1995  20.8535  22.5301  23.0291  24.3000
    25.7387  27.2788  29.0365  29.4884  29.5836  30.7463  31.9244  32.7448
    32.9320

     occupation numbers 
     1.0000   1.0000   1.0000   1.0000   1.0000   1.0000   1.0000   1.0000
     0.0000   0.0000   0.0000   0.0000   0.0000   0.0000   0.0000   0.0000
     0.0000   0.0000   0.0000   0.0000   0.0000   0.0000   0.0000   0.0000
     0.0000   0.0000   0.0000   0.0000   0.0000   0.0000   0.0000   0.0000
     0.0000

          k =-0.2652 0.0884-0.2652 (  1812 PWs)   bands (ev):

   -72.0081 -38.9640 -38.9635 -38.9634  -8.6193  -0.0658   1.2931   1.7290
     6.6921   8.7524   9.3010   9.7233  11.2683  13.1834  14.1522  16.2538
    17.6757  18.3607  19.2442  20.0810  20.7235  23.0741  23.2252  24.3095
    26.2751  27.2958  28.3109  29.5199  29.7053  30.5043  32.2078  32.8085
    33.0712

     occupation numbers 
     1.0000   1.0000   1.0000   1.0000   1.0000   1.0000   1.0000   1.0000
     0.0000   0.0000   0.0000   0.0000   0.0000   0.0000   0.0000   0.0000
     0.0000   0.0000   0.0000   0.0000   0.0000   0.0000   0.0000   0.0000
     0.0000   0.0000   0.0000   0.0000   0.0000   0.0000   0.0000   0.0000
     0.0000

          k =-0.2652 0.0884-0.0884 (  1807 PWs)   bands (ev):

   -72.0081 -38.9637 -38.9634 -38.9634  -8.7400   0.4766   1.5893   1.6158
     6.2045   8.5049   9.6045  10.0030  10.8484  12.6522  14.4140  16.4639
    16.5499  17.4967  19.7527  19.9917  21.4293  22.2726  23.6250  23.8736
    26.7968  26.8615  28.3172  30.2147  31.4988  31.8102  31.9340  33.2865
    33.9866

     occupation numbers 
     1.0000   1.0000   1.0000   1.0000   1.0000   1.0000   1.0000   1.0000
     0.0000   0.0000   0.0000   0.0000   0.0000   0.0000   0.0000   0.0000
     0.0000   0.0000   0.0000   0.0000   0.0000   0.0000   0.0000   0.0000
     0.0000   0.0000   0.0000   0.0000   0.0000   0.0000   0.0000   0.0000
     0.0000

          k =-0.3536 0.1768 0.0000 (  1802 PWs)   bands (ev):

   -72.0081 -38.9640 -38.9636 -38.9634  -8.5974   0.0375   1.1657   1.5581
     6.8829   8.2165   9.1309  10.4497  11.0450  13.5199  15.2874  15.8388
    17.3500  18.3364  18.9239  20.1995  20.8535  22.5301  23.0291  24.3000
    25.7387  27.2788  29.0365  29.4884  29.5836  30.7463  31.9244  32.7448
    32.9320

     occupation numbers 
     1.0000   1.0000   1.0000   1.0000   1.0000   1.0000   1.0000   1.0000
     0.0000   0.0000   0.0000   0.0000   0.0000   0.0000   0.0000   0.0000
     0.0000   0.0000   0.0000   0.0000   0.0000   0.0000   0.0000   0.0000
     0.0000   0.0000   0.0000   0.0000   0.0000   0.0000   0.0000   0.0000
     0.0000

          k =-0.4419 0.2652 0.0884 (  1798 PWs)   bands (ev):

   -72.0081 -38.9642 -38.9637 -38.9635  -8.4448  -0.3743   0.8593   1.4093
     7.3488   8.0803   9.1894  10.3747  11.9896  14.2779  15.0172  15.4824
    17.1336  18.5267  19.5692  20.7502  21.1468  22.7313  23.1736  24.7107
    25.6857  26.5870  27.6976  28.0693  29.5536  30.2427  30.9275  31.8162
    32.3743

     occupation numbers 
     1.0000   1.0000   1.0000   1.0000   1.0000   1.0000   1.0000   1.0000
     0.0000   0.0000   0.0000   0.0000   0.0000   0.0000   0.0000   0.0000
     0.0000   0.0000   0.0000   0.0000   0.0000   0.0000   0.0000   0.0000
     0.0000   0.0000   0.0000   0.0000   0.0000   0.0000   0.0000   0.0000
     0.0000

          k =-0.5303 0.3536 0.1768 (  1800 PWs)   bands (ev):

   -72.0081 -38.9643 -38.9638 -38.9636  -8.3782  -0.5462   0.7635   1.3301
     7.4850   7.8523   9.7974  10.2494  12.4010  13.8324  15.0081  15.6395
    17.1865  18.0757  20.1245  20.7349  22.0740  22.8958  23.7549  24.2443
    25.7076  25.8920  27.3070  28.2365  28.8373  30.0894  30.4726  31.3668
    31.8927

     occupation numbers 
     1.0000   1.0000   1.0000   1.0000   1.0000   1.0000   1.0000   1.0000
     0.0000   0.0000   0.0000   0.0000   0.0000   0.0000   0.0000   0.0000
     0.0000   0.0000   0.0000   0.0000   0.0000   0.0000   0.0000   0.0000
     0.0000   0.0000   0.0000   0.0000   0.0000   0.0000   0.0000   0.0000
     0.0000

          k = 0.0884-0.2652-0.4419 (  1798 PWs)   bands (ev):

   -72.0081 -38.9642 -38.9637 -38.9635  -8.4448  -0.3743   0.8593   1.4093
     7.3488   8.0803   9.1894  10.3747  11.9896  14.2779  15.0172  15.4824
    17.1336  18.5267  19.5692  20.7502  21.1468  22.7313  23.1736  24.7107
    25.6857  26.5870  27.6976  28.0693  29.5536  30.2427  30.9275  31.8162
    32.3743

     occupation numbers 
     1.0000   1.0000   1.0000   1.0000   1.0000   1.0000   1.0000   1.0000
     0.0000   0.0000   0.0000   0.0000   0.0000   0.0000   0.0000   0.0000
     0.0000   0.0000   0.0000   0.0000   0.0000   0.0000   0.0000   0.0000
     0.0000   0.0000   0.0000   0.0000   0.0000   0.0000   0.0000   0.0000
     0.0000

          k = 0.0000-0.1768-0.3536 (  1802 PWs)   bands (ev):

   -72.0081 -38.9640 -38.9636 -38.9634  -8.5974   0.0375   1.1657   1.5581
     6.8829   8.2165   9.1309  10.4497  11.0450  13.5199  15.2874  15.8388
    17.3500  18.3364  18.9239  20.1995  20.8535  22.5301  23.0291  24.3000
    25.7387  27.2788  29.0365  29.4884  29.5836  30.7463  31.9244  32.7448
    32.9320

     occupation numbers 
     1.0000   1.0000   1.0000   1.0000   1.0000   1.0000   1.0000   1.0000
     0.0000   0.0000   0.0000   0.0000   0.0000   0.0000   0.0000   0.0000
     0.0000   0.0000   0.0000   0.0000   0.0000   0.0000   0.0000   0.0000
     0.0000   0.0000   0.0000   0.0000   0.0000   0.0000   0.0000   0.0000
     0.0000

          k =-0.0884-0.0884-0.2652 (  1807 PWs)   bands (ev):

   -72.0081 -38.9637 -38.9634 -38.9634  -8.7400   0.4766   1.5893   1.6158
     6.2045   8.5049   9.6045  10.0030  10.8484  12.6522  14.4140  16.4639
    16.5499  17.4967  19.7527  19.9917  21.4293  22.2726  23.6250  23.8736
    26.7968  26.8615  28.3172  30.2147  31.4988  31.8102  31.9340  33.2865
    33.9866

     occupation numbers 
     1.0000   1.0000   1.0000   1.0000   1.0000   1.0000   1.0000   1.0000
     0.0000   0.0000   0.0000   0.0000   0.0000   0.0000   0.0000   0.0000
     0.0000   0.0000   0.0000   0.0000   0.0000   0.0000   0.0000   0.0000
     0.0000   0.0000   0.0000   0.0000   0.0000   0.0000   0.0000   0.0000
     0.0000

          k =-0.1768 0.0000-0.1768 (  1807 PWs)   bands (ev):

   -72.0081 -38.9636 -38.9634 -38.9633  -8.7965   0.6995   1.5507   1.8360
     5.9069   8.8418   9.6213   9.7015  11.0448  12.1923  14.6596  15.1706
    16.4931  17.5628  19.5982  20.5700  21.8548  22.6765  23.1013  24.5422
    26.1983  27.0503  28.1236  31.0815  31.0930  31.8998  32.1671  33.9861
    33.9890

     occupation numbers 
     1.0000   1.0000   1.0000   1.0000   1.0000   1.0000   1.0000   1.0000
     0.0000   0.0000   0.0000   0.0000   0.0000   0.0000   0.0000   0.0000
     0.0000   0.0000   0.0000   0.0000   0.0000   0.0000   0.0000   0.0000
     0.0000   0.0000   0.0000   0.0000   0.0000   0.0000   0.0000   0.0000
     0.0000

          k =-0.1768 0.0000 0.0000 (  1812 PWs)   bands (ev):

   -72.0081 -38.9635 -38.9633 -38.9633  -8.8758   1.2381   1.7317   1.7317
     5.3961   8.8234   9.7262   9.7262  10.9465  12.5334  15.2129  15.2940
    15.2940  15.5311  19.4941  22.0178  22.0178  22.9718  24.0800  24.5642
    26.4755  26.4755  26.9565  31.5381  31.5381  31.9191  33.4040  33.8167
    33.8167

     occupation numbers 
     1.0000   1.0000   1.0000   1.0000   1.0000   1.0000   1.0000   1.0000
     0.0000   0.0000   0.0000   0.0000   0.0000   0.0000   0.0000   0.0000
     0.0000   0.0000   0.0000   0.0000   0.0000   0.0000   0.0000   0.0000
     0.0000   0.0000   0.0000   0.0000   0.0000   0.0000   0.0000   0.0000
     0.0000

          k =-0.2652 0.0884 0.0884 (  1807 PWs)   bands (ev):

   -72.0081 -38.9637 -38.9634 -38.9634  -8.7400   0.4766   1.5893   1.6158
     6.2045   8.5049   9.6045  10.0030  10.8484  12.6522  14.4140  16.4639
    16.5499  17.4967  19.7527  19.9917  21.4293  22.2726  23.6250  23.8736
    26.7968  26.8615  28.3172  30.2147  31.4988  31.8102  31.9340  33.2865
    33.9866

     occupation numbers 
     1.0000   1.0000   1.0000   1.0000   1.0000   1.0000   1.0000   1.0000
     0.0000   0.0000   0.0000   0.0000   0.0000   0.0000   0.0000   0.0000
     0.0000   0.0000   0.0000   0.0000   0.0000   0.0000   0.0000   0.0000
     0.0000   0.0000   0.0000   0.0000   0.0000   0.0000   0.0000   0.0000
     0.0000

          k =-0.3536 0.1768 0.1768 (  1786 PWs)   bands (ev):

   -72.0081 -38.9641 -38.9635 -38.9635  -8.5577  -0.2981   1.4358   1.4955
     6.7220   8.5458   9.3389   9.8465  11.9115  13.5126  13.9605  16.7821
    16.7836  19.1160  19.2615  19.4147  20.7232  23.4415  23.8881  24.3653
    26.4992  26.7918  27.1387  29.4981  30.0829  30.4461  31.0519  32.3208
    33.3465

     occupation numbers 
     1.0000   1.0000   1.0000   1.0000   1.0000   1.0000   1.0000   1.0000
     0.0000   0.0000   0.0000   0.0000   0.0000   0.0000   0.0000   0.0000
     0.0000   0.0000   0.0000   0.0000   0.0000   0.0000   0.0000   0.0000
     0.0000   0.0000   0.0000   0.0000   0.0000   0.0000   0.0000   0.0000
     0.0000

          k =-0.4419 0.2652 0.2652 (  1793 PWs)   bands (ev):

   -72.0081 -38.9644 -38.9636 -38.9635  -8.4377  -0.7136   1.2655   1.4964
     6.8385   8.3963   9.5733   9.9231  12.9645  14.3577  14.4581  15.2145
    15.5194  17.6322  21.2534  21.3776  21.9591  23.2148  24.3420  24.8312
    25.5650  25.7537  26.8440  28.8928  29.0678  29.9097  30.5975  30.9080
    32.5191

     occupation numbers 
     1.0000   1.0000   1.0000   1.0000   1.0000   1.0000   1.0000   1.0000
     0.0000   0.0000   0.0000   0.0000   0.0000   0.0000   0.0000   0.0000
     0.0000   0.0000   0.0000   0.0000   0.0000   0.0000   0.0000   0.0000
     0.0000   0.0000   0.0000   0.0000   0.0000   0.0000   0.0000   0.0000
     0.0000

          k = 0.1768-0.3536-0.3536 (  1795 PWs)   bands (ev):

   -72.0081 -38.9643 -38.9636 -38.9635  -8.4650  -0.6208   1.2013   1.5896
     6.8837   8.4950   9.5227   9.7851  12.6250  13.7967  14.6012  14.8664
    17.3015  17.4744  19.7336  21.4793  21.9270  23.7075  24.0105  24.8659
    25.8256  26.1159  26.7669  28.5451  28.8423  30.5286  31.0318  31.1280
    33.0326

     occupation numbers 
     1.0000   1.0000   1.0000   1.0000   1.0000   1.0000   1.0000   1.0000
     0.0000   0.0000   0.0000   0.0000   0.0000   0.0000   0.0000   0.0000
     0.0000   0.0000   0.0000   0.0000   0.0000   0.0000   0.0000   0.0000
     0.0000   0.0000   0.0000   0.0000   0.0000   0.0000   0.0000   0.0000
     0.0000

          k = 0.0884-0.2652-0.2652 (  1812 PWs)   bands (ev):

   -72.0081 -38.9640 -38.9635 -38.9634  -8.6193  -0.0658   1.2931   1.7290
     6.6921   8.7524   9.3010   9.7233  11.2683  13.1834  14.1522  16.2538
    17.6757  18.3607  19.2442  20.0810  20.7235  23.0741  23.2252  24.3095
    26.2751  27.2958  28.3109  29.5199  29.7053  30.5043  32.2078  32.8085
    33.0712

     occupation numbers 
     1.0000   1.0000   1.0000   1.0000   1.0000   1.0000   1.0000   1.0000
     0.0000   0.0000   0.0000   0.0000   0.0000   0.0000   0.0000   0.0000
     0.0000   0.0000   0.0000   0.0000   0.0000   0.0000   0.0000   0.0000
     0.0000   0.0000   0.0000   0.0000   0.0000   0.0000   0.0000   0.0000
     0.0000

          k = 0.0000-0.1768-0.1768 (  1807 PWs)   bands (ev):

   -72.0081 -38.9636 -38.9634 -38.9633  -8.7965   0.6995   1.5507   1.8360
     5.9069   8.8418   9.6213   9.7015  11.0448  12.1923  14.6596  15.1706
    16.4931  17.5628  19.5982  20.5700  21.8548  22.6765  23.1013  24.5422
    26.1983  27.0503  28.1236  31.0815  31.0930  31.8998  32.1671  33.9861
    33.9890

     occupation numbers 
     1.0000   1.0000   1.0000   1.0000   1.0000   1.0000   1.0000   1.0000
     0.0000   0.0000   0.0000   0.0000   0.0000   0.0000   0.0000   0.0000
     0.0000   0.0000   0.0000   0.0000   0.0000   0.0000   0.0000   0.0000
     0.0000   0.0000   0.0000   0.0000   0.0000   0.0000   0.0000   0.0000
     0.0000

          k =-0.0884-0.0884-0.0884 (  1817 PWs)   bands (ev):

   -72.0081 -38.9635 -38.9633 -38.9633  -8.8979   1.2541   1.8382   1.8382
     5.1822   9.1353   9.5217   9.5217  11.8548  11.8548  14.0958  15.1582
    15.8619  15.8619  18.9293  22.2372  22.6247  22.6247  25.0614  25.0614
    26.0911  26.0911  26.6772  30.8225  31.6639  31.6639  32.9531  34.6719
    34.6719

     occupation numbers 
     1.0000   1.0000   1.0000   1.0000   1.0000   1.0000   1.0000   1.0000
     0.0000   0.0000   0.0000   0.0000   0.0000   0.0000   0.0000   0.0000
     0.0000   0.0000   0.0000   0.0000   0.0000   0.0000   0.0000   0.0000
     0.0000   0.0000   0.0000   0.0000   0.0000   0.0000   0.0000   0.0000
     0.0000

     the Fermi energy is     3.2579 ev

     Writing output data file /wrk/kfg/julia_data/MgS/znse.in_vnscf_vol_3/qe.nscf.save/
 
     init_run     :      0.18s CPU      0.22s WALL (       1 calls)
     electrons    :    128.72s CPU    133.29s WALL (       1 calls)

     Called by init_run:
     wfcinit      :      0.00s CPU      0.00s WALL (       1 calls)
     wfcinit:atom :      0.03s CPU      0.04s WALL (     512 calls)
     wfcinit:wfcr :      4.56s CPU      4.83s WALL (     512 calls)
     potinit      :      0.01s CPU      0.01s WALL (       1 calls)
     hinit0       :      0.15s CPU      0.17s WALL (       1 calls)

     Called by electrons:
     c_bands      :    128.72s CPU    133.24s WALL (       1 calls)
     v_of_rho     :      0.01s CPU      0.01s WALL (       1 calls)
     v_h          :      0.00s CPU      0.00s WALL (       1 calls)
     v_xc         :      0.00s CPU      0.01s WALL (       1 calls)
     newd         :      0.01s CPU      0.02s WALL (       1 calls)

     Called by c_bands:
     init_us_2    :      0.07s CPU      0.08s WALL (     512 calls)
     cegterg      :    123.45s CPU    127.66s WALL (     556 calls)

     Called by sum_band:

     Called by *egterg:
     h_psi        :     45.79s CPU     48.54s WALL (   10571 calls)
     s_psi        :      1.19s CPU      1.25s WALL (   10571 calls)
     g_psi        :      0.51s CPU      0.52s WALL (    9503 calls)
     cdiaghg      :     63.70s CPU     64.71s WALL (   10015 calls)
     cegterg:over :      7.66s CPU      8.05s WALL (    9503 calls)
     cegterg:upda :      4.35s CPU      4.49s WALL (    9503 calls)
     cegterg:last :      3.37s CPU      3.48s WALL (    2160 calls)
     cdiaghg:chol :      2.63s CPU      2.69s WALL (   10015 calls)
     cdiaghg:inve :      0.70s CPU      0.72s WALL (   10015 calls)
     cdiaghg:para :      7.71s CPU      8.22s WALL (   20030 calls)

     Called by h_psi:
     h_psi:calbec :      1.78s CPU      1.89s WALL (   10571 calls)
     vloc_psi     :     42.64s CPU     45.20s WALL (   10571 calls)
     add_vuspsi   :      1.21s CPU      1.28s WALL (   10571 calls)

     General routines
     calbec       :      1.74s CPU      1.86s WALL (   10571 calls)
     fft          :      0.00s CPU      0.00s WALL (      13 calls)
     ffts         :      0.00s CPU      0.00s WALL (       1 calls)
     fftw         :     38.80s CPU     41.18s WALL (  459094 calls)
     interpolate  :      0.00s CPU      0.00s WALL (       1 calls)
 
     Parallel routines
     fft_scatt_xy :      4.63s CPU      4.89s WALL (  459108 calls)
     fft_scatt_yz :     14.47s CPU     15.50s WALL (  459108 calls)
 
     PWSCF        :   2m10.11s CPU   2m16.86s WALL

 
   This run was terminated on:  21: 4:56  16Apr2020            

=------------------------------------------------------------------------------=
   JOB DONE.
=------------------------------------------------------------------------------=
