
     Program PWSCF v.6.5 starts on 16Apr2020 at 21:27:58 

     This program is part of the open-source Quantum ESPRESSO suite
     for quantum simulation of materials; please cite
         "P. Giannozzi et al., J. Phys.:Condens. Matter 21 395502 (2009);
         "P. Giannozzi et al., J. Phys.:Condens. Matter 29 465901 (2017);
          URL http://www.quantum-espresso.org", 
     in publications or presentations arising from this work. More details at
     http://www.quantum-espresso.org/quote

     Parallel version (MPI), running on     8 processors

     MPI processes distributed on     1 nodes
     R & G space division:  proc/nbgrp/npool/nimage =       8
     Reading input from /wrk/kfg/julia_data/MgS/dimer.in_vnscf_coords_4/qe.in
Warning: card &IONS ignored
Warning: card   ION_DYNAMICS='BFGS', ignored
Warning: card / ignored
Warning: card &CELL ignored
Warning: card  CELL_DYNAMICS = 'BFGS' ignored
Warning: card  CELL_DOFREE = 'ALL' ignored
Warning: card  CELL_FACTOR = 1.0 ignored
Warning: card / ignored
     Message from routine read_cards :
     DEPRECATED: no units specified in CELL_PARAMETERS card

     Current dimensions of program PWSCF are:
     Max number of different atomic species (ntypx) = 10
     Max number of k-points (npk) =  40000
     Max angular momentum in pseudopotentials (lmaxx) =  3
               file mg.pbesol.UPF: wavefunction(s)  3P renormalized

     Subspace diagonalization in iterative solution of the eigenvalue problem:
     one sub-group per band group will be used
     scalapack distributed-memory algorithm (size of sub-group:  2*  2 procs)

     Message from routine setup:
     using ibrav=0 with symmetry is DISCOURAGED, use correct ibrav instead
 
     Parallelization info
     --------------------
     sticks:   dense  smooth     PW     G-vecs:    dense   smooth      PW
     Min         487     350     97                32720    19990    2917
     Max         490     351     98                32721    19993    2920
     Sum        3909    2801    777               261761   159925   23349
 


     bravais-lattice index     =            0
     lattice parameter (alat)  =      14.0000  a.u.
     unit-cell volume          =    3920.0000 (a.u.)^3
     number of atoms/cell      =            2
     number of atomic types    =            2
     number of electrons       =        16.00
     number of Kohn-Sham states=           12
     kinetic-energy cutoff     =      45.0000  Ry
     charge density cutoff     =     250.0000  Ry
     convergence threshold     =      1.0E-09
     mixing beta               =       0.3000
     number of iterations used =            8  local-TF  mixing
     Exchange-correlation= SLA  PW   PSX  PSC
                           (   1   4  10   8   0   0   0)
     A smooth kinetic-energy cutoff is imposed at      44.5000 Ry
     height of the smooth step-function =             800.0000 Ry
     width of the smooth step-function  =               1.0000 Ry


     celldm(1)=  14.000000  celldm(2)=   0.000000  celldm(3)=   0.000000
     celldm(4)=   0.000000  celldm(5)=   0.000000  celldm(6)=   0.000000

     crystal axes: (cart. coord. in units of alat)
               a(1) = (   1.000000   0.000000   0.000000 )  
               a(2) = (   0.000000   1.000000   0.000000 )  
               a(3) = (   0.000000   0.000000   1.428571 )  

     reciprocal axes: (cart. coord. in units 2 pi/alat)
               b(1) = (  1.000000  0.000000  0.000000 )  
               b(2) = (  0.000000  1.000000  0.000000 )  
               b(3) = (  0.000000  0.000000  0.700000 )  


     PseudoPot. # 1 for Mg read from file:
     /home/kfg/psuedo/gbrv_1.5/mg.pbesol.UPF
     MD5 check sum: cbba17e5274afd115179030b10be074e
     Pseudo is Ultrasoft, Zval = 10.0
     Generated by new atomic code, or converted to UPF format
     Using radial grid of  821 points,  7 beta functions with: 
                l(1) =   0
                l(2) =   0
                l(3) =   0
                l(4) =   1
                l(5) =   1
                l(6) =   2
                l(7) =   2
     Q(r) pseudized with  8 coefficients,  rinner =    1.200   1.200   1.200
                                                       1.200   1.200

     PseudoPot. # 2 for S  read from file:
     /home/kfg/psuedo/gbrv_1.5/s.pbesol.UPF
     MD5 check sum: 0ccfa86ec6eb59065d10aaae963ef2a7
     Pseudo is Ultrasoft + core correction, Zval =  6.0
     Generated by new atomic code, or converted to UPF format
     Using radial grid of  907 points,  6 beta functions with: 
                l(1) =   0
                l(2) =   0
                l(3) =   1
                l(4) =   1
                l(5) =   2
                l(6) =   2
     Q(r) pseudized with  8 coefficients,  rinner =    1.300   1.300   1.300
                                                       1.300   1.300

     atomic species   valence    mass     pseudopotential
        Mg            10.00    24.31000     Mg( 1.00)
        S              6.00    32.06000     S ( 1.00)

      8 Sym. Ops. (no inversion) found


                                    s                        frac. trans.

      isym =  1     identity                                     

 cryst.   s( 1) = (     1          0          0      )
                  (     0          1          0      )
                  (     0          0          1      )

 cart.    s( 1) = (  1.0000000  0.0000000  0.0000000 )
                  (  0.0000000  1.0000000  0.0000000 )
                  (  0.0000000  0.0000000  1.0000000 )


      isym =  2     180 deg rotation - cart. axis [0,0,1]        

 cryst.   s( 2) = (    -1          0          0      )
                  (     0         -1          0      )
                  (     0          0          1      )

 cart.    s( 2) = ( -1.0000000  0.0000000  0.0000000 )
                  (  0.0000000 -1.0000000  0.0000000 )
                  (  0.0000000  0.0000000  1.0000000 )


      isym =  3      90 deg rotation - cart. axis [0,0,-1]       

 cryst.   s( 3) = (     0         -1          0      )
                  (     1          0          0      )
                  (     0          0          1      )

 cart.    s( 3) = (  0.0000000  1.0000000  0.0000000 )
                  ( -1.0000000  0.0000000  0.0000000 )
                  (  0.0000000  0.0000000  1.0000000 )


      isym =  4      90 deg rotation - cart. axis [0,0,1]        

 cryst.   s( 4) = (     0          1          0      )
                  (    -1          0          0      )
                  (     0          0          1      )

 cart.    s( 4) = (  0.0000000 -1.0000000  0.0000000 )
                  (  1.0000000  0.0000000  0.0000000 )
                  (  0.0000000  0.0000000  1.0000000 )


      isym =  5     inv. 180 deg rotation - cart. axis [0,1,0]   

 cryst.   s( 5) = (     1          0          0      )
                  (     0         -1          0      )
                  (     0          0          1      )

 cart.    s( 5) = (  1.0000000  0.0000000  0.0000000 )
                  (  0.0000000 -1.0000000  0.0000000 )
                  (  0.0000000  0.0000000  1.0000000 )


      isym =  6     inv. 180 deg rotation - cart. axis [1,0,0]   

 cryst.   s( 6) = (    -1          0          0      )
                  (     0          1          0      )
                  (     0          0          1      )

 cart.    s( 6) = ( -1.0000000  0.0000000  0.0000000 )
                  (  0.0000000  1.0000000  0.0000000 )
                  (  0.0000000  0.0000000  1.0000000 )


      isym =  7     inv. 180 deg rotation - cart. axis [1,1,0]   

 cryst.   s( 7) = (     0         -1          0      )
                  (    -1          0          0      )
                  (     0          0          1      )

 cart.    s( 7) = (  0.0000000 -1.0000000  0.0000000 )
                  ( -1.0000000  0.0000000  0.0000000 )
                  (  0.0000000  0.0000000  1.0000000 )


      isym =  8     inv. 180 deg rotation - cart. axis [1,-1,0]  

 cryst.   s( 8) = (     0          1          0      )
                  (     1          0          0      )
                  (     0          0          1      )

 cart.    s( 8) = (  0.0000000  1.0000000  0.0000000 )
                  (  1.0000000  0.0000000  0.0000000 )
                  (  0.0000000  0.0000000  1.0000000 )


   Cartesian axes

     site n.     atom                  positions (alat units)
         1           Mg  tau(   1) = (   0.0000000   0.0000000  -0.1400781  )
         2           S   tau(   2) = (   0.0000000   0.0000000   0.1400781  )

   Crystallographic axes

     site n.     atom                  positions (cryst. coord.)
         1           Mg  tau(   1) = (  0.0000000  0.0000000 -0.0980547  )
         2           S   tau(   2) = (  0.0000000  0.0000000  0.0980547  )

     number of k points=    18  Gaussian smearing, width (Ry)=  0.0100
                       cart. coord. in units 2pi/alat
        k(    1) = (   0.0000000   0.0000000   0.0000000), wk =   0.0312500
        k(    2) = (   0.0000000   0.0000000   0.1750000), wk =   0.0625000
        k(    3) = (   0.0000000   0.0000000  -0.3500000), wk =   0.0312500
        k(    4) = (   0.0000000   0.2500000   0.0000000), wk =   0.1250000
        k(    5) = (   0.0000000   0.2500000   0.1750000), wk =   0.2500000
        k(    6) = (   0.0000000   0.2500000  -0.3500000), wk =   0.1250000
        k(    7) = (   0.0000000  -0.5000000   0.0000000), wk =   0.0625000
        k(    8) = (   0.0000000  -0.5000000   0.1750000), wk =   0.1250000
        k(    9) = (   0.0000000  -0.5000000  -0.3500000), wk =   0.0625000
        k(   10) = (   0.2500000   0.2500000   0.0000000), wk =   0.1250000
        k(   11) = (   0.2500000   0.2500000   0.1750000), wk =   0.2500000
        k(   12) = (   0.2500000   0.2500000  -0.3500000), wk =   0.1250000
        k(   13) = (   0.2500000  -0.5000000   0.0000000), wk =   0.1250000
        k(   14) = (   0.2500000  -0.5000000   0.1750000), wk =   0.2500000
        k(   15) = (   0.2500000  -0.5000000  -0.3500000), wk =   0.1250000
        k(   16) = (  -0.5000000  -0.5000000   0.0000000), wk =   0.0312500
        k(   17) = (  -0.5000000  -0.5000000   0.1750000), wk =   0.0625000
        k(   18) = (  -0.5000000  -0.5000000  -0.3500000), wk =   0.0312500

                       cryst. coord.
        k(    1) = (   0.0000000   0.0000000   0.0000000), wk =   0.0312500
        k(    2) = (   0.0000000   0.0000000   0.2500000), wk =   0.0625000
        k(    3) = (   0.0000000   0.0000000  -0.5000000), wk =   0.0312500
        k(    4) = (   0.0000000   0.2500000   0.0000000), wk =   0.1250000
        k(    5) = (   0.0000000   0.2500000   0.2500000), wk =   0.2500000
        k(    6) = (   0.0000000   0.2500000  -0.5000000), wk =   0.1250000
        k(    7) = (   0.0000000  -0.5000000   0.0000000), wk =   0.0625000
        k(    8) = (   0.0000000  -0.5000000   0.2500000), wk =   0.1250000
        k(    9) = (   0.0000000  -0.5000000  -0.5000000), wk =   0.0625000
        k(   10) = (   0.2500000   0.2500000   0.0000000), wk =   0.1250000
        k(   11) = (   0.2500000   0.2500000   0.2500000), wk =   0.2500000
        k(   12) = (   0.2500000   0.2500000  -0.5000000), wk =   0.1250000
        k(   13) = (   0.2500000  -0.5000000   0.0000000), wk =   0.1250000
        k(   14) = (   0.2500000  -0.5000000   0.2500000), wk =   0.2500000
        k(   15) = (   0.2500000  -0.5000000  -0.5000000), wk =   0.1250000
        k(   16) = (  -0.5000000  -0.5000000   0.0000000), wk =   0.0312500
        k(   17) = (  -0.5000000  -0.5000000   0.2500000), wk =   0.0625000
        k(   18) = (  -0.5000000  -0.5000000  -0.5000000), wk =   0.0312500

     Dense  grid:   261761 G-vectors     FFT dimensions: (  72,  72, 108)

     Smooth grid:   159925 G-vectors     FFT dimensions: (  60,  60,  90)

     Dynamical RAM for                 wfc:       0.46 MB

     Dynamical RAM for     wfc (w. buffer):       8.69 MB

     Dynamical RAM for           str. fact:       1.00 MB

     Dynamical RAM for           local pot:       0.00 MB

     Dynamical RAM for          nlocal pot:       1.41 MB

     Dynamical RAM for                qrad:       7.53 MB

     Dynamical RAM for          rho,v,vnew:       3.16 MB

     Dynamical RAM for               rhoin:       1.05 MB

     Dynamical RAM for            rho*nmix:       7.99 MB

     Dynamical RAM for           G-vectors:       2.02 MB

     Dynamical RAM for          h,s,v(r/c):       0.03 MB

     Dynamical RAM for          <psi|beta>:       0.01 MB

     Dynamical RAM for                 psi:       1.83 MB

     Dynamical RAM for                hpsi:       1.83 MB

     Dynamical RAM for                spsi:       1.83 MB

     Dynamical RAM for      wfcinit/wfcrot:       0.92 MB

     Dynamical RAM for           addusdens:     102.85 MB

     Dynamical RAM for          addusforce:     104.61 MB

     Dynamical RAM for         addusstress:     109.84 MB

     Estimated static dynamical RAM per process >      37.12 MB

     Estimated max dynamical RAM per process >     146.96 MB

     Estimated total dynamical RAM >       1.15 GB

     Initial potential from superposition of free atoms

     starting charge   15.69974, renormalised to   16.00000

     negative rho (up, down):  3.387E-05 0.000E+00
     Starting wfcs are   12 randomized atomic wfcs

     total cpu time spent up to now is        1.7 secs

     Self-consistent Calculation

     iteration #  1     ecut=    45.00 Ry     beta= 0.30
     Davidson diagonalization with overlap
     ethr =  1.00E-02,  avg # of iterations =  5.1

     negative rho (up, down):  4.109E-05 0.000E+00

     total cpu time spent up to now is        6.2 secs

     total energy              =    -149.08864569 Ry
     Harris-Foulkes estimate   =    -149.17361921 Ry
     estimated scf accuracy    <       0.69305439 Ry

     iteration #  2     ecut=    45.00 Ry     beta= 0.30
     Davidson diagonalization with overlap
     ethr =  4.33E-03,  avg # of iterations =  1.0

     negative rho (up, down):  8.988E-03 0.000E+00

     total cpu time spent up to now is        9.5 secs

     total energy              =    -148.85914639 Ry
     Harris-Foulkes estimate   =    -149.09984575 Ry
     estimated scf accuracy    <       0.48340522 Ry

     iteration #  3     ecut=    45.00 Ry     beta= 0.30
     Davidson diagonalization with overlap
     ethr =  3.02E-03,  avg # of iterations =  2.0

     negative rho (up, down):  7.039E-03 0.000E+00

     total cpu time spent up to now is       12.8 secs

     total energy              =    -148.93946068 Ry
     Harris-Foulkes estimate   =    -148.96285582 Ry
     estimated scf accuracy    <       0.09968391 Ry

     iteration #  4     ecut=    45.00 Ry     beta= 0.30
     Davidson diagonalization with overlap
     ethr =  6.23E-04,  avg # of iterations =  2.1

     negative rho (up, down):  2.020E-02 0.000E+00

     total cpu time spent up to now is       16.2 secs

     total energy              =    -148.93027040 Ry
     Harris-Foulkes estimate   =    -148.96684582 Ry
     estimated scf accuracy    <       0.07309552 Ry

     iteration #  5     ecut=    45.00 Ry     beta= 0.30
     Davidson diagonalization with overlap
     ethr =  4.57E-04,  avg # of iterations =  3.5

     negative rho (up, down):  1.615E-02 0.000E+00

     total cpu time spent up to now is       19.2 secs

     total energy              =    -148.94273242 Ry
     Harris-Foulkes estimate   =    -148.94366446 Ry
     estimated scf accuracy    <       0.00852977 Ry

     iteration #  6     ecut=    45.00 Ry     beta= 0.30
     Davidson diagonalization with overlap
     ethr =  5.33E-05,  avg # of iterations =  5.4

     negative rho (up, down):  5.463E-03 0.000E+00

     total cpu time spent up to now is       23.0 secs

     total energy              =    -148.94364972 Ry
     Harris-Foulkes estimate   =    -148.94340966 Ry
     estimated scf accuracy    <       0.00194632 Ry

     iteration #  7     ecut=    45.00 Ry     beta= 0.30
     Davidson diagonalization with overlap
     ethr =  1.22E-05,  avg # of iterations =  3.4

     negative rho (up, down):  1.787E-03 0.000E+00

     total cpu time spent up to now is       27.5 secs

     total energy              =    -148.94375945 Ry
     Harris-Foulkes estimate   =    -148.94389035 Ry
     estimated scf accuracy    <       0.00036303 Ry

     iteration #  8     ecut=    45.00 Ry     beta= 0.30
     Davidson diagonalization with overlap
     ethr =  2.27E-06,  avg # of iterations =  5.5

     negative rho (up, down):  1.776E-04 0.000E+00

     total cpu time spent up to now is       32.1 secs

     total energy              =    -148.94377449 Ry
     Harris-Foulkes estimate   =    -148.94399946 Ry
     estimated scf accuracy    <       0.00082134 Ry

     iteration #  9     ecut=    45.00 Ry     beta= 0.30
     Davidson diagonalization with overlap
     ethr =  2.27E-06,  avg # of iterations =  3.8

     negative rho (up, down):  3.396E-06 0.000E+00

     total cpu time spent up to now is       35.5 secs

     total energy              =    -148.94389197 Ry
     Harris-Foulkes estimate   =    -148.94388053 Ry
     estimated scf accuracy    <       0.00001368 Ry

     iteration # 10     ecut=    45.00 Ry     beta= 0.30
     Davidson diagonalization with overlap
     ethr =  8.55E-08,  avg # of iterations =  6.1

     negative rho (up, down):  7.121E-06 0.000E+00

     total cpu time spent up to now is       39.1 secs

     total energy              =    -148.94389677 Ry
     Harris-Foulkes estimate   =    -148.94389434 Ry
     estimated scf accuracy    <       0.00000438 Ry

     iteration # 11     ecut=    45.00 Ry     beta= 0.30
     Davidson diagonalization with overlap
     ethr =  2.74E-08,  avg # of iterations =  2.1

     negative rho (up, down):  7.855E-05 0.000E+00

     total cpu time spent up to now is       43.3 secs

     total energy              =    -148.94389947 Ry
     Harris-Foulkes estimate   =    -148.94389713 Ry
     estimated scf accuracy    <       0.00000291 Ry

     iteration # 12     ecut=    45.00 Ry     beta= 0.30
     Davidson diagonalization with overlap
     ethr =  1.82E-08,  avg # of iterations =  6.9

     negative rho (up, down):  8.835E-05 0.000E+00

     total cpu time spent up to now is       47.4 secs

     total energy              =    -148.94389944 Ry
     Harris-Foulkes estimate   =    -148.94389973 Ry
     estimated scf accuracy    <       0.00000052 Ry

     iteration # 13     ecut=    45.00 Ry     beta= 0.30
     Davidson diagonalization with overlap
     ethr =  3.27E-09,  avg # of iterations =  2.1

     negative rho (up, down):  5.000E-05 0.000E+00

     total cpu time spent up to now is       52.2 secs

     total energy              =    -148.94389945 Ry
     Harris-Foulkes estimate   =    -148.94389951 Ry
     estimated scf accuracy    <       0.00000072 Ry

     iteration # 14     ecut=    45.00 Ry     beta= 0.30
     Davidson diagonalization with overlap
     ethr =  3.27E-09,  avg # of iterations =  2.0

     negative rho (up, down):  5.711E-05 0.000E+00

     total cpu time spent up to now is       57.1 secs

     total energy              =    -148.94389958 Ry
     Harris-Foulkes estimate   =    -148.94389957 Ry
     estimated scf accuracy    <       0.00000004 Ry

     iteration # 15     ecut=    45.00 Ry     beta= 0.30
     Davidson diagonalization with overlap
     ethr =  2.62E-10,  avg # of iterations =  2.7

     negative rho (up, down):  5.848E-05 0.000E+00

     total cpu time spent up to now is       60.8 secs

     total energy              =    -148.94389961 Ry
     Harris-Foulkes estimate   =    -148.94389959 Ry
     estimated scf accuracy    <       0.00000001 Ry

     iteration # 16     ecut=    45.00 Ry     beta= 0.30
     Davidson diagonalization with overlap
     ethr =  6.70E-11,  avg # of iterations =  2.3

     negative rho (up, down):  5.883E-05 0.000E+00

     total cpu time spent up to now is       65.1 secs

     total energy              =    -148.94389963 Ry
     Harris-Foulkes estimate   =    -148.94389961 Ry
     estimated scf accuracy    <          2.8E-09 Ry

     iteration # 17     ecut=    45.00 Ry     beta= 0.30
     Davidson diagonalization with overlap
     ethr =  1.73E-11,  avg # of iterations =  2.0

     negative rho (up, down):  6.127E-05 0.000E+00

     total cpu time spent up to now is       67.2 secs

     End of self-consistent calculation

          k = 0.0000 0.0000 0.0000 ( 19923 PWs)   bands (ev):

   -80.2399 -47.2150 -47.1848 -47.1848 -14.2079  -5.7938  -4.1339  -4.1339
    -3.4925  -0.2939  -0.2939   0.2612

     occupation numbers 
     1.0000   1.0000   1.0000   1.0000   1.0000   1.0000   0.9998   0.9998
     0.0010   0.0000   0.0000   0.0000

          k = 0.0000 0.0000 0.1750 ( 19971 PWs)   bands (ev):

   -80.2399 -47.2150 -47.1848 -47.1848 -14.2079  -5.7947  -4.1338  -4.1338
    -3.4866  -0.2970  -0.2970   0.2125

     occupation numbers 
     1.0000   1.0000   1.0000   1.0000   1.0000   1.0000   0.9998   0.9998
     0.0008   0.0000   0.0000   0.0000

          k = 0.0000 0.0000-0.3500 ( 19978 PWs)   bands (ev):

   -80.2399 -47.2150 -47.1848 -47.1848 -14.2079  -5.7955  -4.1337  -4.1337
    -3.4807  -0.3001  -0.3001   0.1476

     occupation numbers 
     1.0000   1.0000   1.0000   1.0000   1.0000   1.0000   0.9998   0.9998
     0.0007   0.0000   0.0000   0.0000

          k = 0.0000 0.2500 0.0000 ( 19968 PWs)   bands (ev):

   -80.2399 -47.2150 -47.1848 -47.1848 -14.2079  -5.7906  -4.1484  -4.1326
    -3.4706  -0.6363  -0.2645   0.5806

     occupation numbers 
     1.0000   1.0000   1.0000   1.0000   1.0000   1.0000   0.9999   0.9998
     0.0005   0.0000   0.0000   0.0000

          k = 0.0000 0.2500 0.1750 ( 19980 PWs)   bands (ev):

   -80.2399 -47.2150 -47.1848 -47.1848 -14.2079  -5.7914  -4.1483  -4.1325
    -3.4650  -0.6389  -0.2675   0.4089

     occupation numbers 
     1.0000   1.0000   1.0000   1.0000   1.0000   1.0000   0.9999   0.9998
     0.0004   0.0000   0.0000   0.0000

          k = 0.0000 0.2500-0.3500 ( 19962 PWs)   bands (ev):

   -80.2399 -47.2150 -47.1848 -47.1848 -14.2079  -5.7922  -4.1482  -4.1325
    -3.4594  -0.6415  -0.2704   0.3066

     occupation numbers 
     1.0000   1.0000   1.0000   1.0000   1.0000   1.0000   0.9999   0.9998
     0.0003   0.0000   0.0000   0.0000

          k = 0.0000-0.5000 0.0000 ( 20022 PWs)   bands (ev):

   -80.2399 -47.2150 -47.1848 -47.1848 -14.2078  -5.7873  -4.1626  -4.1313
    -3.4482  -0.8498  -0.2330   0.8762

     occupation numbers 
     1.0000   1.0000   1.0000   1.0000   1.0000   1.0000   0.9999   0.9998
     0.0002   0.0000   0.0000   0.0000

          k = 0.0000-0.5000 0.1750 ( 19978 PWs)   bands (ev):

   -80.2399 -47.2150 -47.1848 -47.1848 -14.2078  -5.7881  -4.1625  -4.1313
    -3.4429  -0.8534  -0.2359   0.6816

     occupation numbers 
     1.0000   1.0000   1.0000   1.0000   1.0000   1.0000   0.9999   0.9998
     0.0002   0.0000   0.0000   0.0000

          k = 0.0000-0.5000-0.3500 ( 19976 PWs)   bands (ev):

   -80.2399 -47.2150 -47.1848 -47.1848 -14.2078  -5.7889  -4.1623  -4.1312
    -3.4376  -0.8569  -0.2387   0.5717

     occupation numbers 
     1.0000   1.0000   1.0000   1.0000   1.0000   1.0000   0.9999   0.9998
     0.0001   0.0000   0.0000   0.0000

          k = 0.2500 0.2500 0.0000 ( 19983 PWs)   bands (ev):

   -80.2399 -47.2150 -47.1848 -47.1848 -14.2078  -5.7874  -4.1474  -4.1463
    -3.4499  -0.6188  -0.5374   0.7819

     occupation numbers 
     1.0000   1.0000   1.0000   1.0000   1.0000   1.0000   0.9999   0.9999
     0.0002   0.0000   0.0000   0.0000

          k = 0.2500 0.2500 0.1750 ( 19985 PWs)   bands (ev):

   -80.2399 -47.2150 -47.1848 -47.1848 -14.2078  -5.7882  -4.1473  -4.1462
    -3.4446  -0.6214  -0.5409   0.5722

     occupation numbers 
     1.0000   1.0000   1.0000   1.0000   1.0000   1.0000   0.9999   0.9999
     0.0002   0.0000   0.0000   0.0000

          k = 0.2500 0.2500-0.3500 ( 19980 PWs)   bands (ev):

   -80.2399 -47.2150 -47.1848 -47.1848 -14.2078  -5.7890  -4.1472  -4.1461
    -3.4392  -0.6240  -0.5445   0.4619

     occupation numbers 
     1.0000   1.0000   1.0000   1.0000   1.0000   1.0000   0.9999   0.9999
     0.0001   0.0000   0.0000   0.0000

          k = 0.2500-0.5000 0.0000 ( 20020 PWs)   bands (ev):

   -80.2399 -47.2150 -47.1848 -47.1848 -14.2077  -5.7843  -4.1607  -4.1452
    -3.4286  -0.7880  -0.5163   1.0129

     occupation numbers 
     1.0000   1.0000   1.0000   1.0000   1.0000   1.0000   0.9999   0.9999
     0.0001   0.0000   0.0000   0.0000

          k = 0.2500-0.5000 0.1750 ( 19978 PWs)   bands (ev):

   -80.2399 -47.2150 -47.1848 -47.1848 -14.2077  -5.7850  -4.1605  -4.1451
    -3.4236  -0.7917  -0.5197   0.8322

     occupation numbers 
     1.0000   1.0000   1.0000   1.0000   1.0000   1.0000   0.9999   0.9999
     0.0001   0.0000   0.0000   0.0000

          k = 0.2500-0.5000-0.3500 ( 19992 PWs)   bands (ev):

   -80.2399 -47.2150 -47.1848 -47.1848 -14.2077  -5.7858  -4.1604  -4.1450
    -3.4186  -0.7954  -0.5232   0.7191

     occupation numbers 
     1.0000   1.0000   1.0000   1.0000   1.0000   1.0000   0.9999   0.9999
     0.0001   0.0000   0.0000   0.0000

          k =-0.5000-0.5000 0.0000 ( 20028 PWs)   bands (ev):

   -80.2399 -47.2150 -47.1848 -47.1848 -14.2077  -5.7812  -4.1587  -4.1587
    -3.4087  -0.7146  -0.7146   0.8656

     occupation numbers 
     1.0000   1.0000   1.0000   1.0000   1.0000   1.0000   0.9999   0.9999
     0.0000   0.0000   0.0000   0.0000

          k =-0.5000-0.5000 0.1750 ( 19944 PWs)   bands (ev):

   -80.2399 -47.2150 -47.1848 -47.1848 -14.2077  -5.7819  -4.1586  -4.1586
    -3.4039  -0.7187  -0.7187   1.0471

     occupation numbers 
     1.0000   1.0000   1.0000   1.0000   1.0000   1.0000   0.9999   0.9999
     0.0000   0.0000   0.0000   0.0000

          k =-0.5000-0.5000-0.3500 ( 20000 PWs)   bands (ev):

   -80.2399 -47.2150 -47.1848 -47.1848 -14.2077  -5.7827  -4.1585  -4.1585
    -3.3991  -0.7227  -0.7227   0.9391

     occupation numbers 
     1.0000   1.0000   1.0000   1.0000   1.0000   1.0000   0.9999   0.9999
     0.0000   0.0000   0.0000   0.0000

     the Fermi energy is    -3.7899 ev

!    total energy              =    -148.94389967 Ry
     Harris-Foulkes estimate   =    -148.94389963 Ry
     estimated scf accuracy    <          7.1E-10 Ry

     The total energy is the sum of the following terms:

     one-electron contribution =    -212.57384213 Ry
     hartree contribution      =     101.69132832 Ry
     xc contribution           =     -24.74527273 Ry
     ewald contribution        =     -13.31608897 Ry
     smearing contrib. (-TS)   =      -0.00002416 Ry

     convergence has been achieved in  17 iterations

     negative rho (up, down):  6.127E-05 0.000E+00

     Forces acting on atoms (cartesian axes, Ry/au):

     atom    1 type  1   force =     0.00000000    0.00000000   -0.04103626
     atom    2 type  2   force =     0.00000000    0.00000000    0.04103626
     The non-local contrib.  to forces
     atom    1 type  1   force =     0.00000000    0.00000000   -1.16224808
     atom    2 type  2   force =     0.00000000    0.00000000   -0.08500217
     The ionic contribution  to forces
     atom    1 type  1   force =     0.00000000    0.00000000   -7.73494141
     atom    2 type  2   force =     0.00000000    0.00000000    7.73494141
     The local contribution  to forces
     atom    1 type  1   force =     0.00000000    0.00000000    8.85612376
     atom    2 type  2   force =    -0.00000000    0.00000000   -7.60978096
     The core correction contribution to forces
     atom    1 type  1   force =     0.00000000    0.00000000    0.00000000
     atom    2 type  2   force =     0.00000000    0.00000000    0.00083292
     The Hubbard contrib.    to forces
     atom    1 type  1   force =     0.00000000    0.00000000    0.00000000
     atom    2 type  2   force =     0.00000000    0.00000000    0.00000000
     The SCF correction term to forces
     atom    1 type  1   force =     0.00000000   -0.00000000    0.00002213
     atom    2 type  2   force =     0.00000000   -0.00000000    0.00003772

     Total force =     0.058034     Total SCF correction =     0.000044


     Computing stress (Cartesian axis) and pressure


     negative rho (up, down):  6.127E-05 0.000E+00
          total   stress  (Ry/bohr**3)                   (kbar)     P=        2.18
   0.00000368   0.00000000   0.00000000            0.54        0.00        0.00
   0.00000000   0.00000368   0.00000000            0.00        0.54        0.00
   0.00000000   0.00000000   0.00003716            0.00        0.00        5.47

     kinetic stress (kbar)    600.10      0.00      0.00
                                0.00    600.10      0.00
                                0.00      0.00    560.96

     local   stress (kbar)  -1508.50      0.00      0.00
                                0.00  -1508.50     -0.00
                                0.00     -0.00  -2259.58

     nonloc. stress (kbar)    330.19      0.00      0.00
                                0.00    330.19      0.00
                                0.00      0.00    331.42

     hartree stress (kbar)   1208.85      0.00     -0.00
                                0.00   1208.85     -0.00
                               -0.00     -0.00   1398.46

     exc-cor stress (kbar)   -115.70     -0.00     -0.00
                               -0.00   -115.70     -0.00
                               -0.00     -0.00   -115.02

     corecor stress (kbar)   -146.77     -0.00     -0.00
                               -0.00   -146.77      0.00
                               -0.00      0.00   -146.31

     ewald   stress (kbar)   -367.62     -0.00      0.00
                               -0.00   -367.62      0.00
                                0.00      0.00    235.53

     hubbard stress (kbar)      0.00      0.00      0.00
                                0.00      0.00      0.00
                                0.00      0.00      0.00

     london  stress (kbar)      0.00      0.00      0.00
                                0.00      0.00      0.00
                                0.00      0.00      0.00

     DFT-D3  stress (kbar)      0.00      0.00      0.00
                                0.00      0.00      0.00
                                0.00      0.00      0.00

     XDM     stress (kbar)      0.00      0.00      0.00
                                0.00      0.00      0.00
                                0.00      0.00      0.00

     dft-nl  stress (kbar)      0.00      0.00      0.00
                                0.00      0.00      0.00
                                0.00      0.00      0.00

     TS-vdW  stress (kbar)      0.00      0.00      0.00
                                0.00      0.00      0.00
                                0.00      0.00      0.00



     Writing output data file /wrk/kfg/julia_data/MgS/dimer.in_vnscf_coords_4/qe.save/
 
     init_run     :      1.40s CPU      1.51s WALL (       1 calls)
     electrons    :     59.75s CPU     65.50s WALL (       1 calls)
     forces       :      0.74s CPU      0.78s WALL (       1 calls)
     stress       :      2.17s CPU      2.30s WALL (       1 calls)

     Called by init_run:
     wfcinit      :      0.42s CPU      0.45s WALL (       1 calls)
     wfcinit:atom :      0.01s CPU      0.01s WALL (      18 calls)
     wfcinit:wfcr :      0.35s CPU      0.39s WALL (      18 calls)
     potinit      :      0.22s CPU      0.23s WALL (       1 calls)
     hinit0       :      0.49s CPU      0.52s WALL (       1 calls)

     Called by electrons:
     c_bands      :     21.26s CPU     22.63s WALL (      17 calls)
     sum_band     :      8.12s CPU      9.22s WALL (      17 calls)
     v_of_rho     :      0.92s CPU      0.98s WALL (      18 calls)
     v_h          :      0.05s CPU      0.06s WALL (      18 calls)
     v_xc         :      0.97s CPU      1.03s WALL (      20 calls)
     newd         :      3.47s CPU      4.29s WALL (      18 calls)
     mix_rho      :     26.13s CPU     28.55s WALL (      17 calls)

     Called by c_bands:
     init_us_2    :      1.06s CPU      1.08s WALL (     666 calls)
     cegterg      :     17.76s CPU     19.10s WALL (     306 calls)

     Called by sum_band:
     sum_band:bec :      0.00s CPU      0.00s WALL (     306 calls)
     addusdens    :      4.60s CPU      5.44s WALL (      17 calls)

     Called by *egterg:
     h_psi        :     13.28s CPU     14.55s WALL (    1366 calls)
     s_psi        :      0.59s CPU      0.60s WALL (    1366 calls)
     g_psi        :      0.16s CPU      0.16s WALL (    1042 calls)
     cdiaghg      :      1.75s CPU      1.79s WALL (    1348 calls)
     cegterg:over :      0.87s CPU      0.90s WALL (    1042 calls)
     cegterg:upda :      0.75s CPU      0.76s WALL (    1042 calls)
     cegterg:last :      0.24s CPU      0.24s WALL (     306 calls)
     cdiaghg:chol :      0.16s CPU      0.16s WALL (    1348 calls)
     cdiaghg:inve :      0.04s CPU      0.04s WALL (    1348 calls)
     cdiaghg:para :      0.19s CPU      0.19s WALL (    2696 calls)

     Called by h_psi:
     h_psi:calbec :      0.76s CPU      0.81s WALL (    1366 calls)
     vloc_psi     :     11.85s CPU     13.06s WALL (    1366 calls)
     add_vuspsi   :      0.59s CPU      0.60s WALL (    1366 calls)

     General routines
     calbec       :      1.06s CPU      1.12s WALL (    1762 calls)
     fft          :      0.52s CPU      0.58s WALL (     257 calls)
     ffts         :     13.28s CPU     15.39s WALL (   11515 calls)
     fftw         :     12.86s CPU     14.16s WALL (   22242 calls)
     interpolate  :      0.06s CPU      0.07s WALL (      18 calls)
 
     Parallel routines
     fft_scatt_xy :      2.68s CPU      3.01s WALL (   34014 calls)
     fft_scatt_yz :     10.64s CPU     12.62s WALL (   34014 calls)
 
     PWSCF        :   1m 4.17s CPU   1m10.51s WALL

 
   This run was terminated on:  21:29: 8  16Apr2020            

=------------------------------------------------------------------------------=
   JOB DONE.
=------------------------------------------------------------------------------=
