
     Program PWSCF v.6.5 starts on 16Apr2020 at 21:29: 9 

     This program is part of the open-source Quantum ESPRESSO suite
     for quantum simulation of materials; please cite
         "P. Giannozzi et al., J. Phys.:Condens. Matter 21 395502 (2009);
         "P. Giannozzi et al., J. Phys.:Condens. Matter 29 465901 (2017);
          URL http://www.quantum-espresso.org", 
     in publications or presentations arising from this work. More details at
     http://www.quantum-espresso.org/quote

     Parallel version (MPI), running on     8 processors

     MPI processes distributed on     1 nodes
     R & G space division:  proc/nbgrp/npool/nimage =       8
     Reading input from /wrk/kfg/julia_data/MgS/dimer.in_vnscf_coords_4/qe.nscf.in
Warning: card &IONS ignored
Warning: card   ION_DYNAMICS='BFGS', ignored
Warning: card / ignored
Warning: card &CELL ignored
Warning: card  CELL_DYNAMICS = 'BFGS' ignored
Warning: card  CELL_DOFREE = 'ALL' ignored
Warning: card  CELL_FACTOR = 1.0 ignored
Warning: card / ignored
     Message from routine read_cards :
     DEPRECATED: no units specified in CELL_PARAMETERS card

     Current dimensions of program PWSCF are:
     Max number of different atomic species (ntypx) = 10
     Max number of k-points (npk) =  40000
     Max angular momentum in pseudopotentials (lmaxx) =  3

     Atomic positions and unit cell read from directory:
     /wrk/kfg/julia_data/MgS/dimer.in_vnscf_coords_4/qe.nscf.save/                                                                                                                                                                                                   
 
               file mg.pbesol.UPF: wavefunction(s)  3P renormalized

     Subspace diagonalization in iterative solution of the eigenvalue problem:
     one sub-group per band group will be used
     scalapack distributed-memory algorithm (size of sub-group:  2*  2 procs)

 
     Parallelization info
     --------------------
     sticks:   dense  smooth     PW     G-vecs:    dense   smooth      PW
     Min         487     350     97                32720    19990    2917
     Max         490     351     98                32721    19993    2920
     Sum        3909    2801    777               261761   159925   23349
 


     bravais-lattice index     =            0
     lattice parameter (alat)  =      14.0000  a.u.
     unit-cell volume          =    3920.0000 (a.u.)^3
     number of atoms/cell      =            2
     number of atomic types    =            2
     number of electrons       =        16.00
     number of Kohn-Sham states=           33
     kinetic-energy cutoff     =      45.0000  Ry
     charge density cutoff     =     250.0000  Ry
     Exchange-correlation= SLA  PW   PSX  PSC
                           (   1   4  10   8   0   0   0)
     A smooth kinetic-energy cutoff is imposed at      44.5000 Ry
     height of the smooth step-function =             800.0000 Ry
     width of the smooth step-function  =               1.0000 Ry


     celldm(1)=  14.000000  celldm(2)=   0.000000  celldm(3)=   0.000000
     celldm(4)=   0.000000  celldm(5)=   0.000000  celldm(6)=   0.000000

     crystal axes: (cart. coord. in units of alat)
               a(1) = (   1.000000   0.000000   0.000000 )  
               a(2) = (   0.000000   1.000000   0.000000 )  
               a(3) = (   0.000000   0.000000   1.428571 )  

     reciprocal axes: (cart. coord. in units 2 pi/alat)
               b(1) = (  1.000000  0.000000  0.000000 )  
               b(2) = (  0.000000  1.000000  0.000000 )  
               b(3) = (  0.000000  0.000000  0.700000 )  


     PseudoPot. # 1 for Mg read from file:
     /home/kfg/psuedo/gbrv_1.5/mg.pbesol.UPF
     MD5 check sum: cbba17e5274afd115179030b10be074e
     Pseudo is Ultrasoft, Zval = 10.0
     Generated by new atomic code, or converted to UPF format
     Using radial grid of  821 points,  7 beta functions with: 
                l(1) =   0
                l(2) =   0
                l(3) =   0
                l(4) =   1
                l(5) =   1
                l(6) =   2
                l(7) =   2
     Q(r) pseudized with  8 coefficients,  rinner =    1.200   1.200   1.200
                                                       1.200   1.200

     PseudoPot. # 2 for S  read from file:
     /home/kfg/psuedo/gbrv_1.5/s.pbesol.UPF
     MD5 check sum: 0ccfa86ec6eb59065d10aaae963ef2a7
     Pseudo is Ultrasoft + core correction, Zval =  6.0
     Generated by new atomic code, or converted to UPF format
     Using radial grid of  907 points,  6 beta functions with: 
                l(1) =   0
                l(2) =   0
                l(3) =   1
                l(4) =   1
                l(5) =   2
                l(6) =   2
     Q(r) pseudized with  8 coefficients,  rinner =    1.300   1.300   1.300
                                                       1.300   1.300

     atomic species   valence    mass     pseudopotential
        Mg            10.00    24.31000     Mg( 1.00)
        S              6.00    32.06000     S ( 1.00)

     No symmetry found


                                    s                        frac. trans.

      isym =  1     identity                                     

 cryst.   s( 1) = (     1          0          0      )
                  (     0          1          0      )
                  (     0          0          1      )

 cart.    s( 1) = (  1.0000000  0.0000000  0.0000000 )
                  (  0.0000000  1.0000000  0.0000000 )
                  (  0.0000000  0.0000000  1.0000000 )


   Cartesian axes

     site n.     atom                  positions (alat units)
         1           Mg  tau(   1) = (   0.0000000   0.0000000  -0.1400781  )
         2           S   tau(   2) = (   0.0000000   0.0000000   0.1400781  )

   Crystallographic axes

     site n.     atom                  positions (cryst. coord.)
         1           Mg  tau(   1) = (  0.0000000  0.0000000 -0.0980547  )
         2           S   tau(   2) = (  0.0000000  0.0000000  0.0980547  )

     number of k points=    64  Gaussian smearing, width (Ry)=  0.0100
                       cart. coord. in units 2pi/alat
        k(    1) = (   0.0000000   0.0000000   0.0000000), wk =   0.0312500
        k(    2) = (   0.0000000   0.0000000   0.1750000), wk =   0.0312500
        k(    3) = (   0.0000000   0.0000000  -0.3500000), wk =   0.0312500
        k(    4) = (   0.0000000   0.0000000  -0.1750000), wk =   0.0312500
        k(    5) = (   0.0000000   0.2500000   0.0000000), wk =   0.0312500
        k(    6) = (   0.0000000   0.2500000   0.1750000), wk =   0.0312500
        k(    7) = (   0.0000000   0.2500000  -0.3500000), wk =   0.0312500
        k(    8) = (   0.0000000   0.2500000  -0.1750000), wk =   0.0312500
        k(    9) = (   0.0000000  -0.5000000   0.0000000), wk =   0.0312500
        k(   10) = (   0.0000000  -0.5000000   0.1750000), wk =   0.0312500
        k(   11) = (   0.0000000  -0.5000000  -0.3500000), wk =   0.0312500
        k(   12) = (   0.0000000  -0.5000000  -0.1750000), wk =   0.0312500
        k(   13) = (   0.0000000  -0.2500000   0.0000000), wk =   0.0312500
        k(   14) = (   0.0000000  -0.2500000   0.1750000), wk =   0.0312500
        k(   15) = (   0.0000000  -0.2500000  -0.3500000), wk =   0.0312500
        k(   16) = (   0.0000000  -0.2500000  -0.1750000), wk =   0.0312500
        k(   17) = (   0.2500000   0.0000000   0.0000000), wk =   0.0312500
        k(   18) = (   0.2500000   0.0000000   0.1750000), wk =   0.0312500
        k(   19) = (   0.2500000   0.0000000  -0.3500000), wk =   0.0312500
        k(   20) = (   0.2500000   0.0000000  -0.1750000), wk =   0.0312500
        k(   21) = (   0.2500000   0.2500000   0.0000000), wk =   0.0312500
        k(   22) = (   0.2500000   0.2500000   0.1750000), wk =   0.0312500
        k(   23) = (   0.2500000   0.2500000  -0.3500000), wk =   0.0312500
        k(   24) = (   0.2500000   0.2500000  -0.1750000), wk =   0.0312500
        k(   25) = (   0.2500000  -0.5000000   0.0000000), wk =   0.0312500
        k(   26) = (   0.2500000  -0.5000000   0.1750000), wk =   0.0312500
        k(   27) = (   0.2500000  -0.5000000  -0.3500000), wk =   0.0312500
        k(   28) = (   0.2500000  -0.5000000  -0.1750000), wk =   0.0312500
        k(   29) = (   0.2500000  -0.2500000   0.0000000), wk =   0.0312500
        k(   30) = (   0.2500000  -0.2500000   0.1750000), wk =   0.0312500
        k(   31) = (   0.2500000  -0.2500000  -0.3500000), wk =   0.0312500
        k(   32) = (   0.2500000  -0.2500000  -0.1750000), wk =   0.0312500
        k(   33) = (  -0.5000000   0.0000000   0.0000000), wk =   0.0312500
        k(   34) = (  -0.5000000   0.0000000   0.1750000), wk =   0.0312500
        k(   35) = (  -0.5000000   0.0000000  -0.3500000), wk =   0.0312500
        k(   36) = (  -0.5000000   0.0000000  -0.1750000), wk =   0.0312500
        k(   37) = (  -0.5000000   0.2500000   0.0000000), wk =   0.0312500
        k(   38) = (  -0.5000000   0.2500000   0.1750000), wk =   0.0312500
        k(   39) = (  -0.5000000   0.2500000  -0.3500000), wk =   0.0312500
        k(   40) = (  -0.5000000   0.2500000  -0.1750000), wk =   0.0312500
        k(   41) = (  -0.5000000  -0.5000000   0.0000000), wk =   0.0312500
        k(   42) = (  -0.5000000  -0.5000000   0.1750000), wk =   0.0312500
        k(   43) = (  -0.5000000  -0.5000000  -0.3500000), wk =   0.0312500
        k(   44) = (  -0.5000000  -0.5000000  -0.1750000), wk =   0.0312500
        k(   45) = (  -0.5000000  -0.2500000   0.0000000), wk =   0.0312500
        k(   46) = (  -0.5000000  -0.2500000   0.1750000), wk =   0.0312500
        k(   47) = (  -0.5000000  -0.2500000  -0.3500000), wk =   0.0312500
        k(   48) = (  -0.5000000  -0.2500000  -0.1750000), wk =   0.0312500
        k(   49) = (  -0.2500000   0.0000000   0.0000000), wk =   0.0312500
        k(   50) = (  -0.2500000   0.0000000   0.1750000), wk =   0.0312500
        k(   51) = (  -0.2500000   0.0000000  -0.3500000), wk =   0.0312500
        k(   52) = (  -0.2500000   0.0000000  -0.1750000), wk =   0.0312500
        k(   53) = (  -0.2500000   0.2500000   0.0000000), wk =   0.0312500
        k(   54) = (  -0.2500000   0.2500000   0.1750000), wk =   0.0312500
        k(   55) = (  -0.2500000   0.2500000  -0.3500000), wk =   0.0312500
        k(   56) = (  -0.2500000   0.2500000  -0.1750000), wk =   0.0312500
        k(   57) = (  -0.2500000  -0.5000000   0.0000000), wk =   0.0312500
        k(   58) = (  -0.2500000  -0.5000000   0.1750000), wk =   0.0312500
        k(   59) = (  -0.2500000  -0.5000000  -0.3500000), wk =   0.0312500
        k(   60) = (  -0.2500000  -0.5000000  -0.1750000), wk =   0.0312500
        k(   61) = (  -0.2500000  -0.2500000   0.0000000), wk =   0.0312500
        k(   62) = (  -0.2500000  -0.2500000   0.1750000), wk =   0.0312500
        k(   63) = (  -0.2500000  -0.2500000  -0.3500000), wk =   0.0312500
        k(   64) = (  -0.2500000  -0.2500000  -0.1750000), wk =   0.0312500

                       cryst. coord.
        k(    1) = (   0.0000000   0.0000000   0.0000000), wk =   0.0312500
        k(    2) = (   0.0000000   0.0000000   0.2500000), wk =   0.0312500
        k(    3) = (   0.0000000   0.0000000  -0.5000000), wk =   0.0312500
        k(    4) = (   0.0000000   0.0000000  -0.2500000), wk =   0.0312500
        k(    5) = (   0.0000000   0.2500000   0.0000000), wk =   0.0312500
        k(    6) = (   0.0000000   0.2500000   0.2500000), wk =   0.0312500
        k(    7) = (   0.0000000   0.2500000  -0.5000000), wk =   0.0312500
        k(    8) = (   0.0000000   0.2500000  -0.2500000), wk =   0.0312500
        k(    9) = (   0.0000000  -0.5000000   0.0000000), wk =   0.0312500
        k(   10) = (   0.0000000  -0.5000000   0.2500000), wk =   0.0312500
        k(   11) = (   0.0000000  -0.5000000  -0.5000000), wk =   0.0312500
        k(   12) = (   0.0000000  -0.5000000  -0.2500000), wk =   0.0312500
        k(   13) = (   0.0000000  -0.2500000   0.0000000), wk =   0.0312500
        k(   14) = (   0.0000000  -0.2500000   0.2500000), wk =   0.0312500
        k(   15) = (   0.0000000  -0.2500000  -0.5000000), wk =   0.0312500
        k(   16) = (   0.0000000  -0.2500000  -0.2500000), wk =   0.0312500
        k(   17) = (   0.2500000   0.0000000   0.0000000), wk =   0.0312500
        k(   18) = (   0.2500000   0.0000000   0.2500000), wk =   0.0312500
        k(   19) = (   0.2500000   0.0000000  -0.5000000), wk =   0.0312500
        k(   20) = (   0.2500000   0.0000000  -0.2500000), wk =   0.0312500
        k(   21) = (   0.2500000   0.2500000   0.0000000), wk =   0.0312500
        k(   22) = (   0.2500000   0.2500000   0.2500000), wk =   0.0312500
        k(   23) = (   0.2500000   0.2500000  -0.5000000), wk =   0.0312500
        k(   24) = (   0.2500000   0.2500000  -0.2500000), wk =   0.0312500
        k(   25) = (   0.2500000  -0.5000000   0.0000000), wk =   0.0312500
        k(   26) = (   0.2500000  -0.5000000   0.2500000), wk =   0.0312500
        k(   27) = (   0.2500000  -0.5000000  -0.5000000), wk =   0.0312500
        k(   28) = (   0.2500000  -0.5000000  -0.2500000), wk =   0.0312500
        k(   29) = (   0.2500000  -0.2500000   0.0000000), wk =   0.0312500
        k(   30) = (   0.2500000  -0.2500000   0.2500000), wk =   0.0312500
        k(   31) = (   0.2500000  -0.2500000  -0.5000000), wk =   0.0312500
        k(   32) = (   0.2500000  -0.2500000  -0.2500000), wk =   0.0312500
        k(   33) = (  -0.5000000   0.0000000   0.0000000), wk =   0.0312500
        k(   34) = (  -0.5000000   0.0000000   0.2500000), wk =   0.0312500
        k(   35) = (  -0.5000000   0.0000000  -0.5000000), wk =   0.0312500
        k(   36) = (  -0.5000000   0.0000000  -0.2500000), wk =   0.0312500
        k(   37) = (  -0.5000000   0.2500000   0.0000000), wk =   0.0312500
        k(   38) = (  -0.5000000   0.2500000   0.2500000), wk =   0.0312500
        k(   39) = (  -0.5000000   0.2500000  -0.5000000), wk =   0.0312500
        k(   40) = (  -0.5000000   0.2500000  -0.2500000), wk =   0.0312500
        k(   41) = (  -0.5000000  -0.5000000   0.0000000), wk =   0.0312500
        k(   42) = (  -0.5000000  -0.5000000   0.2500000), wk =   0.0312500
        k(   43) = (  -0.5000000  -0.5000000  -0.5000000), wk =   0.0312500
        k(   44) = (  -0.5000000  -0.5000000  -0.2500000), wk =   0.0312500
        k(   45) = (  -0.5000000  -0.2500000   0.0000000), wk =   0.0312500
        k(   46) = (  -0.5000000  -0.2500000   0.2500000), wk =   0.0312500
        k(   47) = (  -0.5000000  -0.2500000  -0.5000000), wk =   0.0312500
        k(   48) = (  -0.5000000  -0.2500000  -0.2500000), wk =   0.0312500
        k(   49) = (  -0.2500000   0.0000000   0.0000000), wk =   0.0312500
        k(   50) = (  -0.2500000   0.0000000   0.2500000), wk =   0.0312500
        k(   51) = (  -0.2500000   0.0000000  -0.5000000), wk =   0.0312500
        k(   52) = (  -0.2500000   0.0000000  -0.2500000), wk =   0.0312500
        k(   53) = (  -0.2500000   0.2500000   0.0000000), wk =   0.0312500
        k(   54) = (  -0.2500000   0.2500000   0.2500000), wk =   0.0312500
        k(   55) = (  -0.2500000   0.2500000  -0.5000000), wk =   0.0312500
        k(   56) = (  -0.2500000   0.2500000  -0.2500000), wk =   0.0312500
        k(   57) = (  -0.2500000  -0.5000000   0.0000000), wk =   0.0312500
        k(   58) = (  -0.2500000  -0.5000000   0.2500000), wk =   0.0312500
        k(   59) = (  -0.2500000  -0.5000000  -0.5000000), wk =   0.0312500
        k(   60) = (  -0.2500000  -0.5000000  -0.2500000), wk =   0.0312500
        k(   61) = (  -0.2500000  -0.2500000   0.0000000), wk =   0.0312500
        k(   62) = (  -0.2500000  -0.2500000   0.2500000), wk =   0.0312500
        k(   63) = (  -0.2500000  -0.2500000  -0.5000000), wk =   0.0312500
        k(   64) = (  -0.2500000  -0.2500000  -0.2500000), wk =   0.0312500

     Dense  grid:   261761 G-vectors     FFT dimensions: (  72,  72, 108)

     Smooth grid:   159925 G-vectors     FFT dimensions: (  60,  60,  90)

     Dynamical RAM for                 wfc:       1.26 MB

     Dynamical RAM for     wfc (w. buffer):      81.73 MB

     Dynamical RAM for           str. fact:       1.00 MB

     Dynamical RAM for           local pot:       0.00 MB

     Dynamical RAM for          nlocal pot:       1.41 MB

     Dynamical RAM for                qrad:       7.53 MB

     Dynamical RAM for          rho,v,vnew:       3.16 MB

     Dynamical RAM for           G-vectors:       2.02 MB

     Dynamical RAM for          h,s,v(r/c):       0.20 MB

     Dynamical RAM for          <psi|beta>:       0.02 MB

     Dynamical RAM for                 psi:       5.03 MB

     Dynamical RAM for                hpsi:       5.03 MB

     Dynamical RAM for                spsi:       5.03 MB

     Dynamical RAM for      wfcinit/wfcrot:       2.54 MB

     Dynamical RAM for           addusdens:     102.85 MB

     Estimated static dynamical RAM per process >     101.12 MB

     Estimated max dynamical RAM per process >     203.97 MB

     Estimated total dynamical RAM >       1.59 GB

     The potential is recalculated from file :
     /wrk/kfg/julia_data/MgS/dimer.in_vnscf_coords_4/qe.nscf.save/charge-density


     negative rho (up, down):  6.127E-05 0.000E+00
     Starting wfcs are   12 randomized atomic wfcs +   21 random wfcs

     Band Structure Calculation
     Davidson diagonalization with overlap

     Computing kpt #:     1  of    64
     total cpu time spent up to now is        3.2 secs

     Computing kpt #:     2  of    64
     total cpu time spent up to now is        5.1 secs

     Computing kpt #:     3  of    64
     total cpu time spent up to now is        7.3 secs

     Computing kpt #:     4  of    64
     total cpu time spent up to now is        9.2 secs

     Computing kpt #:     5  of    64
     total cpu time spent up to now is       11.7 secs

     Computing kpt #:     6  of    64
     total cpu time spent up to now is       13.6 secs

     Computing kpt #:     7  of    64
     total cpu time spent up to now is       16.0 secs

     Computing kpt #:     8  of    64
     total cpu time spent up to now is       17.9 secs

     Computing kpt #:     9  of    64
     total cpu time spent up to now is       19.7 secs

     Computing kpt #:    10  of    64
     total cpu time spent up to now is       21.6 secs

     Computing kpt #:    11  of    64
     total cpu time spent up to now is       23.7 secs

     Computing kpt #:    12  of    64
     total cpu time spent up to now is       25.5 secs

     Computing kpt #:    13  of    64
     total cpu time spent up to now is       28.0 secs

     Computing kpt #:    14  of    64
     total cpu time spent up to now is       29.9 secs

     Computing kpt #:    15  of    64
     total cpu time spent up to now is       32.4 secs

     Computing kpt #:    16  of    64
     total cpu time spent up to now is       34.2 secs

     Computing kpt #:    17  of    64
     total cpu time spent up to now is       37.0 secs

     Computing kpt #:    18  of    64
     total cpu time spent up to now is       38.9 secs

     Computing kpt #:    19  of    64
     total cpu time spent up to now is       41.7 secs

     Computing kpt #:    20  of    64
     total cpu time spent up to now is       43.5 secs

     Computing kpt #:    21  of    64
     total cpu time spent up to now is       45.9 secs

     Computing kpt #:    22  of    64
     total cpu time spent up to now is       47.9 secs

     Computing kpt #:    23  of    64
     total cpu time spent up to now is       50.0 secs

     Computing kpt #:    24  of    64
     total cpu time spent up to now is       52.0 secs

     Computing kpt #:    25  of    64
     total cpu time spent up to now is       54.0 secs

     Computing kpt #:    26  of    64
     total cpu time spent up to now is       55.9 secs

     Computing kpt #:    27  of    64
     total cpu time spent up to now is       57.8 secs

     Computing kpt #:    28  of    64
     total cpu time spent up to now is       59.7 secs

     Computing kpt #:    29  of    64
     total cpu time spent up to now is       62.1 secs

     Computing kpt #:    30  of    64
     total cpu time spent up to now is       64.0 secs

     Computing kpt #:    31  of    64
     total cpu time spent up to now is       65.9 secs

     Computing kpt #:    32  of    64
     total cpu time spent up to now is       68.0 secs

     Computing kpt #:    33  of    64
     total cpu time spent up to now is       69.9 secs

     Computing kpt #:    34  of    64
     total cpu time spent up to now is       71.7 secs

     Computing kpt #:    35  of    64
     total cpu time spent up to now is       73.9 secs

     Computing kpt #:    36  of    64
     total cpu time spent up to now is       75.8 secs

     Computing kpt #:    37  of    64
     total cpu time spent up to now is       77.9 secs

     Computing kpt #:    38  of    64
     total cpu time spent up to now is       79.8 secs

     Computing kpt #:    39  of    64
     total cpu time spent up to now is       81.9 secs

     Computing kpt #:    40  of    64
     total cpu time spent up to now is       83.8 secs

     Computing kpt #:    41  of    64
     total cpu time spent up to now is       86.1 secs

     Computing kpt #:    42  of    64
     total cpu time spent up to now is       88.3 secs

     Computing kpt #:    43  of    64
     total cpu time spent up to now is       90.4 secs

     Computing kpt #:    44  of    64
     total cpu time spent up to now is       92.7 secs

     Computing kpt #:    45  of    64
     total cpu time spent up to now is       94.9 secs

     Computing kpt #:    46  of    64
     total cpu time spent up to now is       96.7 secs

     Computing kpt #:    47  of    64
     total cpu time spent up to now is       98.8 secs

     Computing kpt #:    48  of    64
     total cpu time spent up to now is      100.7 secs

     Computing kpt #:    49  of    64
     total cpu time spent up to now is      103.3 secs

     Computing kpt #:    50  of    64
     total cpu time spent up to now is      105.2 secs

     Computing kpt #:    51  of    64
     total cpu time spent up to now is      107.7 secs

     Computing kpt #:    52  of    64
     total cpu time spent up to now is      109.5 secs

     Computing kpt #:    53  of    64
     total cpu time spent up to now is      111.5 secs

     Computing kpt #:    54  of    64
     total cpu time spent up to now is      113.4 secs

     Computing kpt #:    55  of    64
     total cpu time spent up to now is      115.5 secs

     Computing kpt #:    56  of    64
     total cpu time spent up to now is      117.3 secs

     Computing kpt #:    57  of    64
     total cpu time spent up to now is      119.8 secs

     Computing kpt #:    58  of    64
     total cpu time spent up to now is      121.6 secs

     Computing kpt #:    59  of    64
     total cpu time spent up to now is      123.5 secs

     Computing kpt #:    60  of    64
     total cpu time spent up to now is      125.4 secs

     Computing kpt #:    61  of    64
     total cpu time spent up to now is      127.8 secs

     Computing kpt #:    62  of    64
     total cpu time spent up to now is      129.8 secs

     Computing kpt #:    63  of    64
     total cpu time spent up to now is      131.7 secs

     Computing kpt #:    64  of    64
     total cpu time spent up to now is      133.6 secs

     ethr =  6.25E-12,  avg # of iterations = 46.3

     total cpu time spent up to now is      133.6 secs

     End of band structure calculation

          k = 0.0000 0.0000 0.0000 ( 19923 PWs)   bands (ev):

   -80.2397 -47.2148 -47.1845 -47.1845 -14.2080  -5.7939  -4.1339  -4.1339
    -3.4925  -0.2938  -0.2938   0.2615   0.5327   1.4485   1.4853   2.8090
     2.8090   2.9129   3.1236   3.3925   3.4151   3.7414   3.7757   3.7757
     4.3136   4.3379   4.3379   4.9199   5.2208   5.2208   5.2396   5.3586
     6.0983

     occupation numbers 
     1.0000   1.0000   1.0000   1.0000   1.0000   1.0000   0.9998   0.9998
     0.0010   0.0000   0.0000   0.0000   0.0000   0.0000   0.0000   0.0000
     0.0000   0.0000   0.0000   0.0000   0.0000   0.0000   0.0000   0.0000
     0.0000   0.0000   0.0000   0.0000   0.0000   0.0000   0.0000   0.0000
     0.0000

          k = 0.0000 0.0000 0.1750 ( 19971 PWs)   bands (ev):

   -80.2397 -47.2148 -47.1845 -47.1845 -14.2080  -5.7947  -4.1338  -4.1338
    -3.4866  -0.2969  -0.2969   0.2128   0.4525   1.5014   1.7406   2.7066
     2.8910   2.8910   3.0831   3.1301   3.6937   3.6959   3.6959   3.9528
     4.2168   4.2168   4.2749   4.7155   5.1910   5.4532   5.4532   5.4826
     6.0001

     occupation numbers 
     1.0000   1.0000   1.0000   1.0000   1.0000   1.0000   0.9998   0.9998
     0.0008   0.0000   0.0000   0.0000   0.0000   0.0000   0.0000   0.0000
     0.0000   0.0000   0.0000   0.0000   0.0000   0.0000   0.0000   0.0000
     0.0000   0.0000   0.0000   0.0000   0.0000   0.0000   0.0000   0.0000
     0.0000

          k = 0.0000 0.0000-0.3500 ( 19978 PWs)   bands (ev):

   -80.2397 -47.2148 -47.1845 -47.1845 -14.2080  -5.7955  -4.1338  -4.1338
    -3.4807  -0.3000  -0.3000   0.1479   0.4238   1.5186   2.0365   2.6721
     2.9248   3.0050   3.0050   3.1367   3.3287   3.5555   3.5555   4.0295
     4.1743   4.1743   4.8557   5.0788   5.0894   5.1790   5.4727   5.4727
     5.5942

     occupation numbers 
     1.0000   1.0000   1.0000   1.0000   1.0000   1.0000   0.9998   0.9998
     0.0007   0.0000   0.0000   0.0000   0.0000   0.0000   0.0000   0.0000
     0.0000   0.0000   0.0000   0.0000   0.0000   0.0000   0.0000   0.0000
     0.0000   0.0000   0.0000   0.0000   0.0000   0.0000   0.0000   0.0000
     0.0000

          k = 0.0000 0.0000-0.1750 ( 19971 PWs)   bands (ev):

   -80.2397 -47.2148 -47.1845 -47.1845 -14.2080  -5.7947  -4.1338  -4.1338
    -3.4866  -0.2969  -0.2969   0.2128   0.4525   1.5014   1.7406   2.7066
     2.8910   2.8910   3.0831   3.1301   3.6937   3.6959   3.6959   3.9528
     4.2168   4.2168   4.2749   4.7155   5.1910   5.4532   5.4532   5.4826
     6.0001

     occupation numbers 
     1.0000   1.0000   1.0000   1.0000   1.0000   1.0000   0.9998   0.9998
     0.0008   0.0000   0.0000   0.0000   0.0000   0.0000   0.0000   0.0000
     0.0000   0.0000   0.0000   0.0000   0.0000   0.0000   0.0000   0.0000
     0.0000   0.0000   0.0000   0.0000   0.0000   0.0000   0.0000   0.0000
     0.0000

          k = 0.0000 0.2500 0.0000 ( 19968 PWs)   bands (ev):

   -80.2397 -47.2148 -47.1845 -47.1845 -14.2080  -5.7906  -4.1485  -4.1327
    -3.4706  -0.6362  -0.2644   0.5809   0.6728   1.5593   1.7502   2.2566
     2.4813   2.5975   3.0768   3.1897   3.2410   3.8396   4.1430   4.1966
     4.4979   4.5108   4.7635   4.9602   5.1505   5.2472   5.3022   5.5810
     5.6595

     occupation numbers 
     1.0000   1.0000   1.0000   1.0000   1.0000   1.0000   0.9999   0.9998
     0.0005   0.0000   0.0000   0.0000   0.0000   0.0000   0.0000   0.0000
     0.0000   0.0000   0.0000   0.0000   0.0000   0.0000   0.0000   0.0000
     0.0000   0.0000   0.0000   0.0000   0.0000   0.0000   0.0000   0.0000
     0.0000

          k = 0.0000 0.2500 0.1750 ( 19980 PWs)   bands (ev):

   -80.2397 -47.2148 -47.1845 -47.1845 -14.2080  -5.7914  -4.1484  -4.1326
    -3.4650  -0.6388  -0.2674   0.4093   0.7576   1.6365   1.9157   2.1154
     2.5082   2.7899   3.0084   3.1215   3.3221   3.8037   3.9856   4.2528
     4.4261   4.4601   4.6911   4.9041   4.9416   5.1839   5.3472   5.4606
     5.7461

     occupation numbers 
     1.0000   1.0000   1.0000   1.0000   1.0000   1.0000   0.9999   0.9998
     0.0004   0.0000   0.0000   0.0000   0.0000   0.0000   0.0000   0.0000
     0.0000   0.0000   0.0000   0.0000   0.0000   0.0000   0.0000   0.0000
     0.0000   0.0000   0.0000   0.0000   0.0000   0.0000   0.0000   0.0000
     0.0000

          k = 0.0000 0.2500-0.3500 ( 19962 PWs)   bands (ev):

   -80.2397 -47.2148 -47.1845 -47.1845 -14.2079  -5.7922  -4.1483  -4.1325
    -3.4594  -0.6414  -0.2704   0.3069   0.7911   1.7568   1.8039   2.3546
     2.5369   2.7484   3.0698   3.1674   3.3902   3.4734   3.8996   4.2640
     4.3380   4.3417   4.6836   4.8134   5.0995   5.1671   5.5296   5.6610
     5.9140

     occupation numbers 
     1.0000   1.0000   1.0000   1.0000   1.0000   1.0000   0.9999   0.9998
     0.0003   0.0000   0.0000   0.0000   0.0000   0.0000   0.0000   0.0000
     0.0000   0.0000   0.0000   0.0000   0.0000   0.0000   0.0000   0.0000
     0.0000   0.0000   0.0000   0.0000   0.0000   0.0000   0.0000   0.0000
     0.0000

          k = 0.0000 0.2500-0.1750 ( 19980 PWs)   bands (ev):

   -80.2397 -47.2148 -47.1845 -47.1845 -14.2080  -5.7914  -4.1484  -4.1326
    -3.4650  -0.6388  -0.2674   0.4093   0.7576   1.6365   1.9157   2.1154
     2.5082   2.7899   3.0084   3.1215   3.3221   3.8037   3.9856   4.2528
     4.4261   4.4601   4.6911   4.9041   4.9416   5.1839   5.3472   5.4606
     5.7461

     occupation numbers 
     1.0000   1.0000   1.0000   1.0000   1.0000   1.0000   0.9999   0.9998
     0.0004   0.0000   0.0000   0.0000   0.0000   0.0000   0.0000   0.0000
     0.0000   0.0000   0.0000   0.0000   0.0000   0.0000   0.0000   0.0000
     0.0000   0.0000   0.0000   0.0000   0.0000   0.0000   0.0000   0.0000
     0.0000

          k = 0.0000-0.5000 0.0000 ( 20022 PWs)   bands (ev):

   -80.2397 -47.2148 -47.1845 -47.1845 -14.2079  -5.7873  -4.1627  -4.1314
    -3.4481  -0.8497  -0.2330   0.8763   0.9702   1.2125   1.9610   2.0075
     2.2190   2.5173   3.2167   3.2219   3.4882   3.6181   4.1065   4.1554
     4.3160   4.4454   4.6982   4.8519   5.0000   5.2509   5.4721   5.8206
     5.8246

     occupation numbers 
     1.0000   1.0000   1.0000   1.0000   1.0000   1.0000   0.9999   0.9998
     0.0002   0.0000   0.0000   0.0000   0.0000   0.0000   0.0000   0.0000
     0.0000   0.0000   0.0000   0.0000   0.0000   0.0000   0.0000   0.0000
     0.0000   0.0000   0.0000   0.0000   0.0000   0.0000   0.0000   0.0000
     0.0000

          k = 0.0000-0.5000 0.1750 ( 19978 PWs)   bands (ev):

   -80.2397 -47.2148 -47.1845 -47.1845 -14.2079  -5.7881  -4.1625  -4.1313
    -3.4429  -0.8533  -0.2358   0.6819   1.0781   1.2356   1.8547   2.2349
     2.2568   2.7210   3.0884   3.3142   3.5264   3.5409   3.8020   4.2151
     4.3215   4.4235   4.4638   4.9051   4.9621   5.3194   5.4837   5.7180
     5.9511

     occupation numbers 
     1.0000   1.0000   1.0000   1.0000   1.0000   1.0000   0.9999   0.9998
     0.0002   0.0000   0.0000   0.0000   0.0000   0.0000   0.0000   0.0000
     0.0000   0.0000   0.0000   0.0000   0.0000   0.0000   0.0000   0.0000
     0.0000   0.0000   0.0000   0.0000   0.0000   0.0000   0.0000   0.0000
     0.0000

          k = 0.0000-0.5000-0.3500 ( 19976 PWs)   bands (ev):

   -80.2397 -47.2148 -47.1845 -47.1845 -14.2079  -5.7889  -4.1624  -4.1313
    -3.4376  -0.8568  -0.2387   0.5720   1.1169   1.2631   1.7680   2.2519
     2.5463   2.9806   3.0050   3.4149   3.4506   3.5243   3.6461   4.0218
     4.1100   4.2130   4.2511   5.2837   5.4117   5.5454   5.6790   5.6965
     5.7229

     occupation numbers 
     1.0000   1.0000   1.0000   1.0000   1.0000   1.0000   0.9999   0.9998
     0.0001   0.0000   0.0000   0.0000   0.0000   0.0000   0.0000   0.0000
     0.0000   0.0000   0.0000   0.0000   0.0000   0.0000   0.0000   0.0000
     0.0000   0.0000   0.0000   0.0000   0.0000   0.0000   0.0000   0.0000
     0.0000

          k = 0.0000-0.5000-0.1750 ( 19978 PWs)   bands (ev):

   -80.2397 -47.2148 -47.1845 -47.1845 -14.2079  -5.7881  -4.1625  -4.1313
    -3.4429  -0.8533  -0.2358   0.6819   1.0781   1.2356   1.8547   2.2349
     2.2568   2.7210   3.0884   3.3142   3.5264   3.5409   3.8020   4.2151
     4.3215   4.4235   4.4638   4.9051   4.9621   5.3194   5.4837   5.7180
     5.9511

     occupation numbers 
     1.0000   1.0000   1.0000   1.0000   1.0000   1.0000   0.9999   0.9998
     0.0002   0.0000   0.0000   0.0000   0.0000   0.0000   0.0000   0.0000
     0.0000   0.0000   0.0000   0.0000   0.0000   0.0000   0.0000   0.0000
     0.0000   0.0000   0.0000   0.0000   0.0000   0.0000   0.0000   0.0000
     0.0000

          k = 0.0000-0.2500 0.0000 ( 19968 PWs)   bands (ev):

   -80.2397 -47.2148 -47.1845 -47.1845 -14.2080  -5.7906  -4.1485  -4.1327
    -3.4706  -0.6362  -0.2644   0.5809   0.6728   1.5593   1.7502   2.2566
     2.4813   2.5975   3.0768   3.1897   3.2410   3.8396   4.1430   4.1966
     4.4979   4.5108   4.7635   4.9602   5.1505   5.2472   5.3022   5.5810
     5.6595

     occupation numbers 
     1.0000   1.0000   1.0000   1.0000   1.0000   1.0000   0.9999   0.9998
     0.0005   0.0000   0.0000   0.0000   0.0000   0.0000   0.0000   0.0000
     0.0000   0.0000   0.0000   0.0000   0.0000   0.0000   0.0000   0.0000
     0.0000   0.0000   0.0000   0.0000   0.0000   0.0000   0.0000   0.0000
     0.0000

          k = 0.0000-0.2500 0.1750 ( 19980 PWs)   bands (ev):

   -80.2397 -47.2148 -47.1845 -47.1845 -14.2080  -5.7914  -4.1484  -4.1326
    -3.4650  -0.6388  -0.2674   0.4093   0.7576   1.6365   1.9157   2.1154
     2.5082   2.7899   3.0084   3.1215   3.3221   3.8037   3.9856   4.2528
     4.4261   4.4601   4.6911   4.9041   4.9416   5.1839   5.3472   5.4606
     5.7461

     occupation numbers 
     1.0000   1.0000   1.0000   1.0000   1.0000   1.0000   0.9999   0.9998
     0.0004   0.0000   0.0000   0.0000   0.0000   0.0000   0.0000   0.0000
     0.0000   0.0000   0.0000   0.0000   0.0000   0.0000   0.0000   0.0000
     0.0000   0.0000   0.0000   0.0000   0.0000   0.0000   0.0000   0.0000
     0.0000

          k = 0.0000-0.2500-0.3500 ( 19962 PWs)   bands (ev):

   -80.2397 -47.2148 -47.1845 -47.1845 -14.2079  -5.7922  -4.1483  -4.1325
    -3.4594  -0.6414  -0.2704   0.3069   0.7911   1.7568   1.8039   2.3546
     2.5369   2.7484   3.0698   3.1674   3.3902   3.4734   3.8996   4.2640
     4.3380   4.3417   4.6836   4.8134   5.0995   5.1671   5.5296   5.6610
     5.9140

     occupation numbers 
     1.0000   1.0000   1.0000   1.0000   1.0000   1.0000   0.9999   0.9998
     0.0003   0.0000   0.0000   0.0000   0.0000   0.0000   0.0000   0.0000
     0.0000   0.0000   0.0000   0.0000   0.0000   0.0000   0.0000   0.0000
     0.0000   0.0000   0.0000   0.0000   0.0000   0.0000   0.0000   0.0000
     0.0000

          k = 0.0000-0.2500-0.1750 ( 19980 PWs)   bands (ev):

   -80.2397 -47.2148 -47.1845 -47.1845 -14.2080  -5.7914  -4.1484  -4.1326
    -3.4650  -0.6388  -0.2674   0.4093   0.7576   1.6365   1.9157   2.1154
     2.5082   2.7899   3.0084   3.1215   3.3221   3.8037   3.9856   4.2528
     4.4261   4.4601   4.6911   4.9041   4.9416   5.1839   5.3472   5.4606
     5.7461

     occupation numbers 
     1.0000   1.0000   1.0000   1.0000   1.0000   1.0000   0.9999   0.9998
     0.0004   0.0000   0.0000   0.0000   0.0000   0.0000   0.0000   0.0000
     0.0000   0.0000   0.0000   0.0000   0.0000   0.0000   0.0000   0.0000
     0.0000   0.0000   0.0000   0.0000   0.0000   0.0000   0.0000   0.0000
     0.0000

          k = 0.2500 0.0000 0.0000 ( 19968 PWs)   bands (ev):

   -80.2397 -47.2148 -47.1845 -47.1845 -14.2080  -5.7906  -4.1485  -4.1327
    -3.4706  -0.6362  -0.2644   0.5809   0.6728   1.5593   1.7502   2.2566
     2.4813   2.5975   3.0768   3.1897   3.2410   3.8396   4.1430   4.1966
     4.4979   4.5108   4.7635   4.9602   5.1505   5.2472   5.3022   5.5810
     5.6595

     occupation numbers 
     1.0000   1.0000   1.0000   1.0000   1.0000   1.0000   0.9999   0.9998
     0.0005   0.0000   0.0000   0.0000   0.0000   0.0000   0.0000   0.0000
     0.0000   0.0000   0.0000   0.0000   0.0000   0.0000   0.0000   0.0000
     0.0000   0.0000   0.0000   0.0000   0.0000   0.0000   0.0000   0.0000
     0.0000

          k = 0.2500 0.0000 0.1750 ( 19980 PWs)   bands (ev):

   -80.2397 -47.2148 -47.1845 -47.1845 -14.2080  -5.7914  -4.1484  -4.1326
    -3.4650  -0.6388  -0.2674   0.4093   0.7576   1.6365   1.9157   2.1154
     2.5082   2.7899   3.0084   3.1215   3.3221   3.8037   3.9856   4.2528
     4.4261   4.4601   4.6911   4.9041   4.9416   5.1839   5.3472   5.4606
     5.7461

     occupation numbers 
     1.0000   1.0000   1.0000   1.0000   1.0000   1.0000   0.9999   0.9998
     0.0004   0.0000   0.0000   0.0000   0.0000   0.0000   0.0000   0.0000
     0.0000   0.0000   0.0000   0.0000   0.0000   0.0000   0.0000   0.0000
     0.0000   0.0000   0.0000   0.0000   0.0000   0.0000   0.0000   0.0000
     0.0000

          k = 0.2500 0.0000-0.3500 ( 19962 PWs)   bands (ev):

   -80.2397 -47.2148 -47.1845 -47.1845 -14.2079  -5.7922  -4.1483  -4.1325
    -3.4594  -0.6414  -0.2704   0.3069   0.7911   1.7568   1.8039   2.3546
     2.5369   2.7484   3.0698   3.1674   3.3902   3.4734   3.8996   4.2640
     4.3380   4.3417   4.6836   4.8134   5.0995   5.1671   5.5296   5.6610
     5.9140

     occupation numbers 
     1.0000   1.0000   1.0000   1.0000   1.0000   1.0000   0.9999   0.9998
     0.0003   0.0000   0.0000   0.0000   0.0000   0.0000   0.0000   0.0000
     0.0000   0.0000   0.0000   0.0000   0.0000   0.0000   0.0000   0.0000
     0.0000   0.0000   0.0000   0.0000   0.0000   0.0000   0.0000   0.0000
     0.0000

          k = 0.2500 0.0000-0.1750 ( 19980 PWs)   bands (ev):

   -80.2397 -47.2148 -47.1845 -47.1845 -14.2080  -5.7914  -4.1484  -4.1326
    -3.4650  -0.6388  -0.2674   0.4093   0.7576   1.6365   1.9157   2.1154
     2.5082   2.7899   3.0084   3.1215   3.3221   3.8037   3.9856   4.2528
     4.4261   4.4601   4.6911   4.9041   4.9416   5.1839   5.3472   5.4606
     5.7461

     occupation numbers 
     1.0000   1.0000   1.0000   1.0000   1.0000   1.0000   0.9999   0.9998
     0.0004   0.0000   0.0000   0.0000   0.0000   0.0000   0.0000   0.0000
     0.0000   0.0000   0.0000   0.0000   0.0000   0.0000   0.0000   0.0000
     0.0000   0.0000   0.0000   0.0000   0.0000   0.0000   0.0000   0.0000
     0.0000

          k = 0.2500 0.2500 0.0000 ( 19983 PWs)   bands (ev):

   -80.2397 -47.2148 -47.1845 -47.1845 -14.2079  -5.7875  -4.1474  -4.1463
    -3.4498  -0.6187  -0.5373   0.7824   0.8928   1.6701   1.8274   2.0799
     2.2921   2.4731   2.8269   3.0564   3.5400   3.7626   4.0650   4.1688
     4.4469   4.5913   4.8505   5.0337   5.0897   5.4195   5.5051   5.7247
     5.9241

     occupation numbers 
     1.0000   1.0000   1.0000   1.0000   1.0000   1.0000   0.9999   0.9999
     0.0002   0.0000   0.0000   0.0000   0.0000   0.0000   0.0000   0.0000
     0.0000   0.0000   0.0000   0.0000   0.0000   0.0000   0.0000   0.0000
     0.0000   0.0000   0.0000   0.0000   0.0000   0.0000   0.0000   0.0000
     0.0000

          k = 0.2500 0.2500 0.1750 ( 19985 PWs)   bands (ev):

   -80.2397 -47.2148 -47.1845 -47.1845 -14.2079  -5.7882  -4.1473  -4.1462
    -3.4445  -0.6213  -0.5409   0.5726   1.0624   1.7725   1.8927   1.9622
     2.3342   2.3502   3.1294   3.2080   3.3551   3.7795   4.0681   4.1603
     4.2823   4.5777   4.8182   4.8597   5.0282   5.3509   5.4994   5.6068
     5.9617

     occupation numbers 
     1.0000   1.0000   1.0000   1.0000   1.0000   1.0000   0.9999   0.9999
     0.0002   0.0000   0.0000   0.0000   0.0000   0.0000   0.0000   0.0000
     0.0000   0.0000   0.0000   0.0000   0.0000   0.0000   0.0000   0.0000
     0.0000   0.0000   0.0000   0.0000   0.0000   0.0000   0.0000   0.0000
     0.0000

          k = 0.2500 0.2500-0.3500 ( 19980 PWs)   bands (ev):

   -80.2397 -47.2148 -47.1845 -47.1845 -14.2079  -5.7890  -4.1472  -4.1462
    -3.4392  -0.6239  -0.5444   0.4623   1.1504   1.8026   1.8622   2.0209
     2.1518   2.6205   3.1536   3.3730   3.3825   3.7289   3.8318   4.0911
     4.4282   4.4767   4.6293   4.8178   5.1070   5.3108   5.5559   5.6618
     5.8460

     occupation numbers 
     1.0000   1.0000   1.0000   1.0000   1.0000   1.0000   0.9999   0.9999
     0.0001   0.0000   0.0000   0.0000   0.0000   0.0000   0.0000   0.0000
     0.0000   0.0000   0.0000   0.0000   0.0000   0.0000   0.0000   0.0000
     0.0000   0.0000   0.0000   0.0000   0.0000   0.0000   0.0000   0.0000
     0.0000

          k = 0.2500 0.2500-0.1750 ( 19985 PWs)   bands (ev):

   -80.2397 -47.2148 -47.1845 -47.1845 -14.2079  -5.7882  -4.1473  -4.1462
    -3.4445  -0.6213  -0.5409   0.5726   1.0624   1.7725   1.8927   1.9622
     2.3342   2.3502   3.1294   3.2080   3.3551   3.7795   4.0681   4.1603
     4.2823   4.5777   4.8182   4.8597   5.0282   5.3509   5.4994   5.6068
     5.9617

     occupation numbers 
     1.0000   1.0000   1.0000   1.0000   1.0000   1.0000   0.9999   0.9999
     0.0002   0.0000   0.0000   0.0000   0.0000   0.0000   0.0000   0.0000
     0.0000   0.0000   0.0000   0.0000   0.0000   0.0000   0.0000   0.0000
     0.0000   0.0000   0.0000   0.0000   0.0000   0.0000   0.0000   0.0000
     0.0000

          k = 0.2500-0.5000 0.0000 ( 20020 PWs)   bands (ev):

   -80.2397 -47.2148 -47.1845 -47.1845 -14.2078  -5.7843  -4.1607  -4.1453
    -3.4286  -0.7879  -0.5162   1.0132   1.0995   1.3720   1.6862   2.2136
     2.3152   2.6161   2.9472   3.0762   3.1470   3.5809   3.6651   4.2568
     4.4586   4.7300   4.8124   5.0845   5.5458   5.5579   5.7627   5.8792
     6.0012

     occupation numbers 
     1.0000   1.0000   1.0000   1.0000   1.0000   1.0000   0.9999   0.9999
     0.0001   0.0000   0.0000   0.0000   0.0000   0.0000   0.0000   0.0000
     0.0000   0.0000   0.0000   0.0000   0.0000   0.0000   0.0000   0.0000
     0.0000   0.0000   0.0000   0.0000   0.0000   0.0000   0.0000   0.0000
     0.0000

          k = 0.2500-0.5000 0.1750 ( 19978 PWs)   bands (ev):

   -80.2397 -47.2148 -47.1845 -47.1845 -14.2078  -5.7850  -4.1606  -4.1452
    -3.4236  -0.7916  -0.5197   0.8325   1.1510   1.5562   1.5764   2.2950
     2.4202   2.5360   2.8315   3.2175   3.2600   3.6831   3.8044   4.2302
     4.2732   4.6192   4.6243   5.2211   5.3332   5.3991   5.5990   5.6164
     5.8806

     occupation numbers 
     1.0000   1.0000   1.0000   1.0000   1.0000   1.0000   0.9999   0.9999
     0.0001   0.0000   0.0000   0.0000   0.0000   0.0000   0.0000   0.0000
     0.0000   0.0000   0.0000   0.0000   0.0000   0.0000   0.0000   0.0000
     0.0000   0.0000   0.0000   0.0000   0.0000   0.0000   0.0000   0.0000
     0.0000

          k = 0.2500-0.5000-0.3500 ( 19992 PWs)   bands (ev):

   -80.2397 -47.2148 -47.1845 -47.1845 -14.2078  -5.7858  -4.1605  -4.1451
    -3.4185  -0.7953  -0.5231   0.7194   1.2395   1.4380   1.6849   2.2903
     2.4111   2.6839   2.8257   3.2869   3.3315   3.7603   3.9922   4.0458
     4.1652   4.5060   4.7514   4.9663   4.9688   5.3116   5.4385   5.9124
     5.9577

     occupation numbers 
     1.0000   1.0000   1.0000   1.0000   1.0000   1.0000   0.9999   0.9999
     0.0001   0.0000   0.0000   0.0000   0.0000   0.0000   0.0000   0.0000
     0.0000   0.0000   0.0000   0.0000   0.0000   0.0000   0.0000   0.0000
     0.0000   0.0000   0.0000   0.0000   0.0000   0.0000   0.0000   0.0000
     0.0000

          k = 0.2500-0.5000-0.1750 ( 19978 PWs)   bands (ev):

   -80.2397 -47.2148 -47.1845 -47.1845 -14.2078  -5.7850  -4.1606  -4.1452
    -3.4236  -0.7916  -0.5197   0.8325   1.1510   1.5562   1.5764   2.2950
     2.4202   2.5360   2.8315   3.2175   3.2600   3.6831   3.8044   4.2302
     4.2732   4.6192   4.6243   5.2211   5.3332   5.3991   5.5990   5.6164
     5.8806

     occupation numbers 
     1.0000   1.0000   1.0000   1.0000   1.0000   1.0000   0.9999   0.9999
     0.0001   0.0000   0.0000   0.0000   0.0000   0.0000   0.0000   0.0000
     0.0000   0.0000   0.0000   0.0000   0.0000   0.0000   0.0000   0.0000
     0.0000   0.0000   0.0000   0.0000   0.0000   0.0000   0.0000   0.0000
     0.0000

          k = 0.2500-0.2500 0.0000 ( 19983 PWs)   bands (ev):

   -80.2397 -47.2148 -47.1845 -47.1845 -14.2079  -5.7875  -4.1474  -4.1463
    -3.4498  -0.6187  -0.5373   0.7824   0.8928   1.6701   1.8274   2.0799
     2.2921   2.4731   2.8269   3.0564   3.5400   3.7626   4.0650   4.1688
     4.4469   4.5913   4.8505   5.0337   5.0897   5.4195   5.5051   5.7247
     5.9241

     occupation numbers 
     1.0000   1.0000   1.0000   1.0000   1.0000   1.0000   0.9999   0.9999
     0.0002   0.0000   0.0000   0.0000   0.0000   0.0000   0.0000   0.0000
     0.0000   0.0000   0.0000   0.0000   0.0000   0.0000   0.0000   0.0000
     0.0000   0.0000   0.0000   0.0000   0.0000   0.0000   0.0000   0.0000
     0.0000

          k = 0.2500-0.2500 0.1750 ( 19985 PWs)   bands (ev):

   -80.2397 -47.2148 -47.1845 -47.1845 -14.2079  -5.7882  -4.1473  -4.1462
    -3.4445  -0.6213  -0.5409   0.5726   1.0624   1.7725   1.8927   1.9622
     2.3342   2.3502   3.1294   3.2080   3.3551   3.7795   4.0681   4.1603
     4.2823   4.5777   4.8182   4.8597   5.0282   5.3509   5.4994   5.6068
     5.9617

     occupation numbers 
     1.0000   1.0000   1.0000   1.0000   1.0000   1.0000   0.9999   0.9999
     0.0002   0.0000   0.0000   0.0000   0.0000   0.0000   0.0000   0.0000
     0.0000   0.0000   0.0000   0.0000   0.0000   0.0000   0.0000   0.0000
     0.0000   0.0000   0.0000   0.0000   0.0000   0.0000   0.0000   0.0000
     0.0000

          k = 0.2500-0.2500-0.3500 ( 19980 PWs)   bands (ev):

   -80.2397 -47.2148 -47.1845 -47.1845 -14.2079  -5.7890  -4.1472  -4.1462
    -3.4392  -0.6239  -0.5444   0.4623   1.1504   1.8026   1.8622   2.0209
     2.1518   2.6205   3.1536   3.3730   3.3825   3.7289   3.8318   4.0911
     4.4282   4.4767   4.6293   4.8178   5.1070   5.3108   5.5559   5.6618
     5.8460

     occupation numbers 
     1.0000   1.0000   1.0000   1.0000   1.0000   1.0000   0.9999   0.9999
     0.0001   0.0000   0.0000   0.0000   0.0000   0.0000   0.0000   0.0000
     0.0000   0.0000   0.0000   0.0000   0.0000   0.0000   0.0000   0.0000
     0.0000   0.0000   0.0000   0.0000   0.0000   0.0000   0.0000   0.0000
     0.0000

          k = 0.2500-0.2500-0.1750 ( 19985 PWs)   bands (ev):

   -80.2397 -47.2148 -47.1845 -47.1845 -14.2079  -5.7882  -4.1473  -4.1462
    -3.4445  -0.6213  -0.5409   0.5726   1.0624   1.7725   1.8927   1.9622
     2.3342   2.3502   3.1294   3.2080   3.3551   3.7795   4.0681   4.1603
     4.2823   4.5777   4.8182   4.8597   5.0282   5.3509   5.4994   5.6068
     5.9617

     occupation numbers 
     1.0000   1.0000   1.0000   1.0000   1.0000   1.0000   0.9999   0.9999
     0.0002   0.0000   0.0000   0.0000   0.0000   0.0000   0.0000   0.0000
     0.0000   0.0000   0.0000   0.0000   0.0000   0.0000   0.0000   0.0000
     0.0000   0.0000   0.0000   0.0000   0.0000   0.0000   0.0000   0.0000
     0.0000

          k =-0.5000 0.0000 0.0000 ( 20022 PWs)   bands (ev):

   -80.2397 -47.2148 -47.1845 -47.1845 -14.2079  -5.7873  -4.1627  -4.1314
    -3.4481  -0.8497  -0.2330   0.8763   0.9702   1.2125   1.9610   2.0075
     2.2190   2.5173   3.2167   3.2219   3.4882   3.6181   4.1065   4.1554
     4.3160   4.4454   4.6982   4.8519   5.0000   5.2509   5.4721   5.8206
     5.8246

     occupation numbers 
     1.0000   1.0000   1.0000   1.0000   1.0000   1.0000   0.9999   0.9998
     0.0002   0.0000   0.0000   0.0000   0.0000   0.0000   0.0000   0.0000
     0.0000   0.0000   0.0000   0.0000   0.0000   0.0000   0.0000   0.0000
     0.0000   0.0000   0.0000   0.0000   0.0000   0.0000   0.0000   0.0000
     0.0000

          k =-0.5000 0.0000 0.1750 ( 19978 PWs)   bands (ev):

   -80.2397 -47.2148 -47.1845 -47.1845 -14.2079  -5.7881  -4.1625  -4.1313
    -3.4429  -0.8533  -0.2358   0.6819   1.0781   1.2356   1.8547   2.2349
     2.2568   2.7210   3.0884   3.3142   3.5264   3.5409   3.8020   4.2151
     4.3215   4.4235   4.4638   4.9051   4.9621   5.3194   5.4837   5.7180
     5.9511

     occupation numbers 
     1.0000   1.0000   1.0000   1.0000   1.0000   1.0000   0.9999   0.9998
     0.0002   0.0000   0.0000   0.0000   0.0000   0.0000   0.0000   0.0000
     0.0000   0.0000   0.0000   0.0000   0.0000   0.0000   0.0000   0.0000
     0.0000   0.0000   0.0000   0.0000   0.0000   0.0000   0.0000   0.0000
     0.0000

          k =-0.5000 0.0000-0.3500 ( 19976 PWs)   bands (ev):

   -80.2397 -47.2148 -47.1845 -47.1845 -14.2079  -5.7889  -4.1624  -4.1313
    -3.4376  -0.8568  -0.2387   0.5720   1.1169   1.2631   1.7680   2.2519
     2.5463   2.9806   3.0050   3.4149   3.4506   3.5243   3.6461   4.0218
     4.1100   4.2130   4.2511   5.2837   5.4117   5.5454   5.6790   5.6965
     5.7229

     occupation numbers 
     1.0000   1.0000   1.0000   1.0000   1.0000   1.0000   0.9999   0.9998
     0.0001   0.0000   0.0000   0.0000   0.0000   0.0000   0.0000   0.0000
     0.0000   0.0000   0.0000   0.0000   0.0000   0.0000   0.0000   0.0000
     0.0000   0.0000   0.0000   0.0000   0.0000   0.0000   0.0000   0.0000
     0.0000

          k =-0.5000 0.0000-0.1750 ( 19978 PWs)   bands (ev):

   -80.2397 -47.2148 -47.1845 -47.1845 -14.2079  -5.7881  -4.1625  -4.1313
    -3.4429  -0.8533  -0.2358   0.6819   1.0781   1.2356   1.8547   2.2349
     2.2568   2.7210   3.0884   3.3142   3.5264   3.5409   3.8020   4.2151
     4.3215   4.4235   4.4638   4.9051   4.9621   5.3194   5.4837   5.7180
     5.9511

     occupation numbers 
     1.0000   1.0000   1.0000   1.0000   1.0000   1.0000   0.9999   0.9998
     0.0002   0.0000   0.0000   0.0000   0.0000   0.0000   0.0000   0.0000
     0.0000   0.0000   0.0000   0.0000   0.0000   0.0000   0.0000   0.0000
     0.0000   0.0000   0.0000   0.0000   0.0000   0.0000   0.0000   0.0000
     0.0000

          k =-0.5000 0.2500 0.0000 ( 20020 PWs)   bands (ev):

   -80.2397 -47.2148 -47.1845 -47.1845 -14.2078  -5.7843  -4.1607  -4.1453
    -3.4286  -0.7879  -0.5162   1.0132   1.0995   1.3720   1.6862   2.2136
     2.3152   2.6161   2.9472   3.0762   3.1470   3.5809   3.6651   4.2568
     4.4586   4.7300   4.8124   5.0845   5.5458   5.5579   5.7627   5.8792
     6.0012

     occupation numbers 
     1.0000   1.0000   1.0000   1.0000   1.0000   1.0000   0.9999   0.9999
     0.0001   0.0000   0.0000   0.0000   0.0000   0.0000   0.0000   0.0000
     0.0000   0.0000   0.0000   0.0000   0.0000   0.0000   0.0000   0.0000
     0.0000   0.0000   0.0000   0.0000   0.0000   0.0000   0.0000   0.0000
     0.0000

          k =-0.5000 0.2500 0.1750 ( 19978 PWs)   bands (ev):

   -80.2397 -47.2148 -47.1845 -47.1845 -14.2078  -5.7850  -4.1606  -4.1452
    -3.4236  -0.7916  -0.5197   0.8325   1.1510   1.5562   1.5764   2.2950
     2.4202   2.5360   2.8315   3.2175   3.2600   3.6831   3.8044   4.2302
     4.2732   4.6192   4.6243   5.2211   5.3332   5.3991   5.5990   5.6164
     5.8806

     occupation numbers 
     1.0000   1.0000   1.0000   1.0000   1.0000   1.0000   0.9999   0.9999
     0.0001   0.0000   0.0000   0.0000   0.0000   0.0000   0.0000   0.0000
     0.0000   0.0000   0.0000   0.0000   0.0000   0.0000   0.0000   0.0000
     0.0000   0.0000   0.0000   0.0000   0.0000   0.0000   0.0000   0.0000
     0.0000

          k =-0.5000 0.2500-0.3500 ( 19992 PWs)   bands (ev):

   -80.2397 -47.2148 -47.1845 -47.1845 -14.2078  -5.7858  -4.1605  -4.1451
    -3.4185  -0.7953  -0.5231   0.7194   1.2395   1.4380   1.6849   2.2903
     2.4111   2.6839   2.8257   3.2869   3.3315   3.7603   3.9922   4.0458
     4.1652   4.5060   4.7514   4.9663   4.9688   5.3116   5.4385   5.9124
     5.9577

     occupation numbers 
     1.0000   1.0000   1.0000   1.0000   1.0000   1.0000   0.9999   0.9999
     0.0001   0.0000   0.0000   0.0000   0.0000   0.0000   0.0000   0.0000
     0.0000   0.0000   0.0000   0.0000   0.0000   0.0000   0.0000   0.0000
     0.0000   0.0000   0.0000   0.0000   0.0000   0.0000   0.0000   0.0000
     0.0000

          k =-0.5000 0.2500-0.1750 ( 19978 PWs)   bands (ev):

   -80.2397 -47.2148 -47.1845 -47.1845 -14.2078  -5.7850  -4.1606  -4.1452
    -3.4236  -0.7916  -0.5197   0.8325   1.1510   1.5562   1.5764   2.2950
     2.4202   2.5360   2.8315   3.2175   3.2600   3.6831   3.8044   4.2302
     4.2732   4.6192   4.6243   5.2211   5.3332   5.3991   5.5990   5.6164
     5.8806

     occupation numbers 
     1.0000   1.0000   1.0000   1.0000   1.0000   1.0000   0.9999   0.9999
     0.0001   0.0000   0.0000   0.0000   0.0000   0.0000   0.0000   0.0000
     0.0000   0.0000   0.0000   0.0000   0.0000   0.0000   0.0000   0.0000
     0.0000   0.0000   0.0000   0.0000   0.0000   0.0000   0.0000   0.0000
     0.0000

          k =-0.5000-0.5000 0.0000 ( 20028 PWs)   bands (ev):

   -80.2397 -47.2148 -47.1845 -47.1845 -14.2077  -5.7812  -4.1588  -4.1588
    -3.4086  -0.7145  -0.7145   0.8659   1.1961   1.7653   1.7653   2.0946
     2.5128   2.6028   2.6028   2.7118   3.5388   3.5388   3.6429   3.6782
     4.8142   4.8365   4.8365   4.8556   5.9779   5.9779   6.0300   6.0921
     6.2751

     occupation numbers 
     1.0000   1.0000   1.0000   1.0000   1.0000   1.0000   0.9999   0.9999
     0.0000   0.0000   0.0000   0.0000   0.0000   0.0000   0.0000   0.0000
     0.0000   0.0000   0.0000   0.0000   0.0000   0.0000   0.0000   0.0000
     0.0000   0.0000   0.0000   0.0000   0.0000   0.0000   0.0000   0.0000
     0.0000

          k =-0.5000-0.5000 0.1750 ( 19944 PWs)   bands (ev):

   -80.2397 -47.2148 -47.1845 -47.1845 -14.2077  -5.7820  -4.1587  -4.1587
    -3.4038  -0.7186  -0.7186   0.8963   1.0479   1.7968   1.7968   2.1124
     2.3769   2.5863   2.5863   3.3218   3.5502   3.5502   3.5650   3.6819
     4.7461   4.7461   4.7842   4.8430   5.3578   5.7836   5.9941   6.0075
     6.0075

     occupation numbers 
     1.0000   1.0000   1.0000   1.0000   1.0000   1.0000   0.9999   0.9999
     0.0000   0.0000   0.0000   0.0000   0.0000   0.0000   0.0000   0.0000
     0.0000   0.0000   0.0000   0.0000   0.0000   0.0000   0.0000   0.0000
     0.0000   0.0000   0.0000   0.0000   0.0000   0.0000   0.0000   0.0000
     0.0000

          k =-0.5000-0.5000-0.3500 ( 20000 PWs)   bands (ev):

   -80.2397 -47.2148 -47.1845 -47.1845 -14.2077  -5.7827  -4.1585  -4.1585
    -3.3990  -0.7227  -0.7227   0.9315   0.9394   1.8303   1.8303   1.9240
     2.5663   2.5663   2.6772   3.4247   3.5710   3.5710   3.6855   4.1296
     4.2299   4.6309   4.6309   4.8867   4.9512   5.4745   5.9164   6.0466
     6.0466

     occupation numbers 
     1.0000   1.0000   1.0000   1.0000   1.0000   1.0000   0.9999   0.9999
     0.0000   0.0000   0.0000   0.0000   0.0000   0.0000   0.0000   0.0000
     0.0000   0.0000   0.0000   0.0000   0.0000   0.0000   0.0000   0.0000
     0.0000   0.0000   0.0000   0.0000   0.0000   0.0000   0.0000   0.0000
     0.0000

          k =-0.5000-0.5000-0.1750 ( 19944 PWs)   bands (ev):

   -80.2397 -47.2148 -47.1845 -47.1845 -14.2077  -5.7820  -4.1587  -4.1587
    -3.4038  -0.7186  -0.7186   0.8963   1.0479   1.7968   1.7968   2.1124
     2.3769   2.5863   2.5863   3.3218   3.5502   3.5502   3.5650   3.6819
     4.7461   4.7461   4.7842   4.8430   5.3578   5.7836   5.9941   6.0075
     6.0075

     occupation numbers 
     1.0000   1.0000   1.0000   1.0000   1.0000   1.0000   0.9999   0.9999
     0.0000   0.0000   0.0000   0.0000   0.0000   0.0000   0.0000   0.0000
     0.0000   0.0000   0.0000   0.0000   0.0000   0.0000   0.0000   0.0000
     0.0000   0.0000   0.0000   0.0000   0.0000   0.0000   0.0000   0.0000
     0.0000

          k =-0.5000-0.2500 0.0000 ( 20020 PWs)   bands (ev):

   -80.2397 -47.2148 -47.1845 -47.1845 -14.2078  -5.7843  -4.1607  -4.1453
    -3.4286  -0.7879  -0.5162   1.0132   1.0995   1.3720   1.6862   2.2136
     2.3152   2.6161   2.9472   3.0762   3.1470   3.5809   3.6651   4.2568
     4.4586   4.7300   4.8124   5.0845   5.5458   5.5579   5.7627   5.8792
     6.0012

     occupation numbers 
     1.0000   1.0000   1.0000   1.0000   1.0000   1.0000   0.9999   0.9999
     0.0001   0.0000   0.0000   0.0000   0.0000   0.0000   0.0000   0.0000
     0.0000   0.0000   0.0000   0.0000   0.0000   0.0000   0.0000   0.0000
     0.0000   0.0000   0.0000   0.0000   0.0000   0.0000   0.0000   0.0000
     0.0000

          k =-0.5000-0.2500 0.1750 ( 19978 PWs)   bands (ev):

   -80.2397 -47.2148 -47.1845 -47.1845 -14.2078  -5.7850  -4.1606  -4.1452
    -3.4236  -0.7916  -0.5197   0.8325   1.1510   1.5562   1.5764   2.2950
     2.4202   2.5360   2.8315   3.2175   3.2600   3.6831   3.8044   4.2302
     4.2732   4.6192   4.6243   5.2211   5.3332   5.3991   5.5990   5.6164
     5.8806

     occupation numbers 
     1.0000   1.0000   1.0000   1.0000   1.0000   1.0000   0.9999   0.9999
     0.0001   0.0000   0.0000   0.0000   0.0000   0.0000   0.0000   0.0000
     0.0000   0.0000   0.0000   0.0000   0.0000   0.0000   0.0000   0.0000
     0.0000   0.0000   0.0000   0.0000   0.0000   0.0000   0.0000   0.0000
     0.0000

          k =-0.5000-0.2500-0.3500 ( 19992 PWs)   bands (ev):

   -80.2397 -47.2148 -47.1845 -47.1845 -14.2078  -5.7858  -4.1605  -4.1451
    -3.4185  -0.7953  -0.5231   0.7194   1.2395   1.4380   1.6849   2.2903
     2.4111   2.6839   2.8257   3.2869   3.3315   3.7603   3.9922   4.0458
     4.1652   4.5060   4.7514   4.9663   4.9688   5.3116   5.4385   5.9124
     5.9577

     occupation numbers 
     1.0000   1.0000   1.0000   1.0000   1.0000   1.0000   0.9999   0.9999
     0.0001   0.0000   0.0000   0.0000   0.0000   0.0000   0.0000   0.0000
     0.0000   0.0000   0.0000   0.0000   0.0000   0.0000   0.0000   0.0000
     0.0000   0.0000   0.0000   0.0000   0.0000   0.0000   0.0000   0.0000
     0.0000

          k =-0.5000-0.2500-0.1750 ( 19978 PWs)   bands (ev):

   -80.2397 -47.2148 -47.1845 -47.1845 -14.2078  -5.7850  -4.1606  -4.1452
    -3.4236  -0.7916  -0.5197   0.8325   1.1510   1.5562   1.5764   2.2950
     2.4202   2.5360   2.8315   3.2175   3.2600   3.6831   3.8044   4.2302
     4.2732   4.6192   4.6243   5.2211   5.3332   5.3991   5.5990   5.6164
     5.8806

     occupation numbers 
     1.0000   1.0000   1.0000   1.0000   1.0000   1.0000   0.9999   0.9999
     0.0001   0.0000   0.0000   0.0000   0.0000   0.0000   0.0000   0.0000
     0.0000   0.0000   0.0000   0.0000   0.0000   0.0000   0.0000   0.0000
     0.0000   0.0000   0.0000   0.0000   0.0000   0.0000   0.0000   0.0000
     0.0000

          k =-0.2500 0.0000 0.0000 ( 19968 PWs)   bands (ev):

   -80.2397 -47.2148 -47.1845 -47.1845 -14.2080  -5.7906  -4.1485  -4.1327
    -3.4706  -0.6362  -0.2644   0.5809   0.6728   1.5593   1.7502   2.2566
     2.4813   2.5975   3.0768   3.1897   3.2410   3.8396   4.1430   4.1966
     4.4979   4.5108   4.7635   4.9602   5.1505   5.2472   5.3022   5.5810
     5.6595

     occupation numbers 
     1.0000   1.0000   1.0000   1.0000   1.0000   1.0000   0.9999   0.9998
     0.0005   0.0000   0.0000   0.0000   0.0000   0.0000   0.0000   0.0000
     0.0000   0.0000   0.0000   0.0000   0.0000   0.0000   0.0000   0.0000
     0.0000   0.0000   0.0000   0.0000   0.0000   0.0000   0.0000   0.0000
     0.0000

          k =-0.2500 0.0000 0.1750 ( 19980 PWs)   bands (ev):

   -80.2397 -47.2148 -47.1845 -47.1845 -14.2080  -5.7914  -4.1484  -4.1326
    -3.4650  -0.6388  -0.2674   0.4093   0.7576   1.6365   1.9157   2.1154
     2.5082   2.7899   3.0084   3.1215   3.3221   3.8037   3.9856   4.2528
     4.4261   4.4601   4.6911   4.9041   4.9416   5.1839   5.3472   5.4606
     5.7461

     occupation numbers 
     1.0000   1.0000   1.0000   1.0000   1.0000   1.0000   0.9999   0.9998
     0.0004   0.0000   0.0000   0.0000   0.0000   0.0000   0.0000   0.0000
     0.0000   0.0000   0.0000   0.0000   0.0000   0.0000   0.0000   0.0000
     0.0000   0.0000   0.0000   0.0000   0.0000   0.0000   0.0000   0.0000
     0.0000

          k =-0.2500 0.0000-0.3500 ( 19962 PWs)   bands (ev):

   -80.2397 -47.2148 -47.1845 -47.1845 -14.2079  -5.7922  -4.1483  -4.1325
    -3.4594  -0.6414  -0.2704   0.3069   0.7911   1.7568   1.8039   2.3546
     2.5369   2.7484   3.0698   3.1674   3.3902   3.4734   3.8996   4.2640
     4.3380   4.3417   4.6836   4.8134   5.0995   5.1671   5.5296   5.6610
     5.9140

     occupation numbers 
     1.0000   1.0000   1.0000   1.0000   1.0000   1.0000   0.9999   0.9998
     0.0003   0.0000   0.0000   0.0000   0.0000   0.0000   0.0000   0.0000
     0.0000   0.0000   0.0000   0.0000   0.0000   0.0000   0.0000   0.0000
     0.0000   0.0000   0.0000   0.0000   0.0000   0.0000   0.0000   0.0000
     0.0000

          k =-0.2500 0.0000-0.1750 ( 19980 PWs)   bands (ev):

   -80.2397 -47.2148 -47.1845 -47.1845 -14.2080  -5.7914  -4.1484  -4.1326
    -3.4650  -0.6388  -0.2674   0.4093   0.7576   1.6365   1.9157   2.1154
     2.5082   2.7899   3.0084   3.1215   3.3221   3.8037   3.9856   4.2528
     4.4261   4.4601   4.6911   4.9041   4.9416   5.1839   5.3472   5.4606
     5.7461

     occupation numbers 
     1.0000   1.0000   1.0000   1.0000   1.0000   1.0000   0.9999   0.9998
     0.0004   0.0000   0.0000   0.0000   0.0000   0.0000   0.0000   0.0000
     0.0000   0.0000   0.0000   0.0000   0.0000   0.0000   0.0000   0.0000
     0.0000   0.0000   0.0000   0.0000   0.0000   0.0000   0.0000   0.0000
     0.0000

          k =-0.2500 0.2500 0.0000 ( 19983 PWs)   bands (ev):

   -80.2397 -47.2148 -47.1845 -47.1845 -14.2079  -5.7875  -4.1474  -4.1463
    -3.4498  -0.6187  -0.5373   0.7824   0.8928   1.6701   1.8274   2.0799
     2.2921   2.4731   2.8269   3.0564   3.5400   3.7626   4.0650   4.1688
     4.4469   4.5913   4.8505   5.0337   5.0897   5.4195   5.5051   5.7247
     5.9241

     occupation numbers 
     1.0000   1.0000   1.0000   1.0000   1.0000   1.0000   0.9999   0.9999
     0.0002   0.0000   0.0000   0.0000   0.0000   0.0000   0.0000   0.0000
     0.0000   0.0000   0.0000   0.0000   0.0000   0.0000   0.0000   0.0000
     0.0000   0.0000   0.0000   0.0000   0.0000   0.0000   0.0000   0.0000
     0.0000

          k =-0.2500 0.2500 0.1750 ( 19985 PWs)   bands (ev):

   -80.2397 -47.2148 -47.1845 -47.1845 -14.2079  -5.7882  -4.1473  -4.1462
    -3.4445  -0.6213  -0.5409   0.5726   1.0624   1.7725   1.8927   1.9622
     2.3342   2.3502   3.1294   3.2080   3.3551   3.7795   4.0681   4.1603
     4.2823   4.5777   4.8182   4.8597   5.0282   5.3509   5.4994   5.6068
     5.9617

     occupation numbers 
     1.0000   1.0000   1.0000   1.0000   1.0000   1.0000   0.9999   0.9999
     0.0002   0.0000   0.0000   0.0000   0.0000   0.0000   0.0000   0.0000
     0.0000   0.0000   0.0000   0.0000   0.0000   0.0000   0.0000   0.0000
     0.0000   0.0000   0.0000   0.0000   0.0000   0.0000   0.0000   0.0000
     0.0000

          k =-0.2500 0.2500-0.3500 ( 19980 PWs)   bands (ev):

   -80.2397 -47.2148 -47.1845 -47.1845 -14.2079  -5.7890  -4.1472  -4.1462
    -3.4392  -0.6239  -0.5444   0.4623   1.1504   1.8026   1.8622   2.0209
     2.1518   2.6205   3.1536   3.3730   3.3825   3.7289   3.8318   4.0911
     4.4282   4.4767   4.6293   4.8178   5.1070   5.3108   5.5559   5.6618
     5.8460

     occupation numbers 
     1.0000   1.0000   1.0000   1.0000   1.0000   1.0000   0.9999   0.9999
     0.0001   0.0000   0.0000   0.0000   0.0000   0.0000   0.0000   0.0000
     0.0000   0.0000   0.0000   0.0000   0.0000   0.0000   0.0000   0.0000
     0.0000   0.0000   0.0000   0.0000   0.0000   0.0000   0.0000   0.0000
     0.0000

          k =-0.2500 0.2500-0.1750 ( 19985 PWs)   bands (ev):

   -80.2397 -47.2148 -47.1845 -47.1845 -14.2079  -5.7882  -4.1473  -4.1462
    -3.4445  -0.6213  -0.5409   0.5726   1.0624   1.7725   1.8927   1.9622
     2.3342   2.3502   3.1294   3.2080   3.3551   3.7795   4.0681   4.1603
     4.2823   4.5777   4.8182   4.8597   5.0282   5.3509   5.4994   5.6068
     5.9617

     occupation numbers 
     1.0000   1.0000   1.0000   1.0000   1.0000   1.0000   0.9999   0.9999
     0.0002   0.0000   0.0000   0.0000   0.0000   0.0000   0.0000   0.0000
     0.0000   0.0000   0.0000   0.0000   0.0000   0.0000   0.0000   0.0000
     0.0000   0.0000   0.0000   0.0000   0.0000   0.0000   0.0000   0.0000
     0.0000

          k =-0.2500-0.5000 0.0000 ( 20020 PWs)   bands (ev):

   -80.2397 -47.2148 -47.1845 -47.1845 -14.2078  -5.7843  -4.1607  -4.1453
    -3.4286  -0.7879  -0.5162   1.0132   1.0995   1.3720   1.6862   2.2136
     2.3152   2.6161   2.9472   3.0762   3.1470   3.5809   3.6651   4.2568
     4.4586   4.7300   4.8124   5.0845   5.5458   5.5579   5.7627   5.8792
     6.0012

     occupation numbers 
     1.0000   1.0000   1.0000   1.0000   1.0000   1.0000   0.9999   0.9999
     0.0001   0.0000   0.0000   0.0000   0.0000   0.0000   0.0000   0.0000
     0.0000   0.0000   0.0000   0.0000   0.0000   0.0000   0.0000   0.0000
     0.0000   0.0000   0.0000   0.0000   0.0000   0.0000   0.0000   0.0000
     0.0000

          k =-0.2500-0.5000 0.1750 ( 19978 PWs)   bands (ev):

   -80.2397 -47.2148 -47.1845 -47.1845 -14.2078  -5.7850  -4.1606  -4.1452
    -3.4236  -0.7916  -0.5197   0.8325   1.1510   1.5562   1.5764   2.2950
     2.4202   2.5360   2.8315   3.2175   3.2600   3.6831   3.8044   4.2302
     4.2732   4.6192   4.6243   5.2211   5.3332   5.3991   5.5990   5.6164
     5.8806

     occupation numbers 
     1.0000   1.0000   1.0000   1.0000   1.0000   1.0000   0.9999   0.9999
     0.0001   0.0000   0.0000   0.0000   0.0000   0.0000   0.0000   0.0000
     0.0000   0.0000   0.0000   0.0000   0.0000   0.0000   0.0000   0.0000
     0.0000   0.0000   0.0000   0.0000   0.0000   0.0000   0.0000   0.0000
     0.0000

          k =-0.2500-0.5000-0.3500 ( 19992 PWs)   bands (ev):

   -80.2397 -47.2148 -47.1845 -47.1845 -14.2078  -5.7858  -4.1605  -4.1451
    -3.4185  -0.7953  -0.5231   0.7194   1.2395   1.4380   1.6849   2.2903
     2.4111   2.6839   2.8257   3.2869   3.3315   3.7603   3.9922   4.0458
     4.1652   4.5060   4.7514   4.9663   4.9688   5.3116   5.4385   5.9124
     5.9577

     occupation numbers 
     1.0000   1.0000   1.0000   1.0000   1.0000   1.0000   0.9999   0.9999
     0.0001   0.0000   0.0000   0.0000   0.0000   0.0000   0.0000   0.0000
     0.0000   0.0000   0.0000   0.0000   0.0000   0.0000   0.0000   0.0000
     0.0000   0.0000   0.0000   0.0000   0.0000   0.0000   0.0000   0.0000
     0.0000

          k =-0.2500-0.5000-0.1750 ( 19978 PWs)   bands (ev):

   -80.2397 -47.2148 -47.1845 -47.1845 -14.2078  -5.7850  -4.1606  -4.1452
    -3.4236  -0.7916  -0.5197   0.8325   1.1510   1.5562   1.5764   2.2950
     2.4202   2.5360   2.8315   3.2175   3.2600   3.6831   3.8044   4.2302
     4.2732   4.6192   4.6243   5.2211   5.3332   5.3991   5.5990   5.6164
     5.8806

     occupation numbers 
     1.0000   1.0000   1.0000   1.0000   1.0000   1.0000   0.9999   0.9999
     0.0001   0.0000   0.0000   0.0000   0.0000   0.0000   0.0000   0.0000
     0.0000   0.0000   0.0000   0.0000   0.0000   0.0000   0.0000   0.0000
     0.0000   0.0000   0.0000   0.0000   0.0000   0.0000   0.0000   0.0000
     0.0000

          k =-0.2500-0.2500 0.0000 ( 19983 PWs)   bands (ev):

   -80.2397 -47.2148 -47.1845 -47.1845 -14.2079  -5.7875  -4.1474  -4.1463
    -3.4498  -0.6187  -0.5373   0.7824   0.8928   1.6701   1.8274   2.0799
     2.2921   2.4731   2.8269   3.0564   3.5400   3.7626   4.0650   4.1688
     4.4469   4.5913   4.8505   5.0337   5.0897   5.4195   5.5051   5.7247
     5.9241

     occupation numbers 
     1.0000   1.0000   1.0000   1.0000   1.0000   1.0000   0.9999   0.9999
     0.0002   0.0000   0.0000   0.0000   0.0000   0.0000   0.0000   0.0000
     0.0000   0.0000   0.0000   0.0000   0.0000   0.0000   0.0000   0.0000
     0.0000   0.0000   0.0000   0.0000   0.0000   0.0000   0.0000   0.0000
     0.0000

          k =-0.2500-0.2500 0.1750 ( 19985 PWs)   bands (ev):

   -80.2397 -47.2148 -47.1845 -47.1845 -14.2079  -5.7882  -4.1473  -4.1462
    -3.4445  -0.6213  -0.5409   0.5726   1.0624   1.7725   1.8927   1.9622
     2.3342   2.3502   3.1294   3.2080   3.3551   3.7795   4.0681   4.1603
     4.2823   4.5777   4.8182   4.8597   5.0282   5.3509   5.4994   5.6068
     5.9617

     occupation numbers 
     1.0000   1.0000   1.0000   1.0000   1.0000   1.0000   0.9999   0.9999
     0.0002   0.0000   0.0000   0.0000   0.0000   0.0000   0.0000   0.0000
     0.0000   0.0000   0.0000   0.0000   0.0000   0.0000   0.0000   0.0000
     0.0000   0.0000   0.0000   0.0000   0.0000   0.0000   0.0000   0.0000
     0.0000

          k =-0.2500-0.2500-0.3500 ( 19980 PWs)   bands (ev):

   -80.2397 -47.2148 -47.1845 -47.1845 -14.2079  -5.7890  -4.1472  -4.1462
    -3.4392  -0.6239  -0.5444   0.4623   1.1504   1.8026   1.8622   2.0209
     2.1518   2.6205   3.1536   3.3730   3.3825   3.7289   3.8318   4.0911
     4.4282   4.4767   4.6293   4.8178   5.1070   5.3108   5.5559   5.6618
     5.8460

     occupation numbers 
     1.0000   1.0000   1.0000   1.0000   1.0000   1.0000   0.9999   0.9999
     0.0001   0.0000   0.0000   0.0000   0.0000   0.0000   0.0000   0.0000
     0.0000   0.0000   0.0000   0.0000   0.0000   0.0000   0.0000   0.0000
     0.0000   0.0000   0.0000   0.0000   0.0000   0.0000   0.0000   0.0000
     0.0000

          k =-0.2500-0.2500-0.1750 ( 19985 PWs)   bands (ev):

   -80.2397 -47.2148 -47.1845 -47.1845 -14.2079  -5.7882  -4.1473  -4.1462
    -3.4445  -0.6213  -0.5409   0.5726   1.0624   1.7725   1.8927   1.9622
     2.3342   2.3502   3.1294   3.2080   3.3551   3.7795   4.0681   4.1603
     4.2823   4.5777   4.8182   4.8597   5.0282   5.3509   5.4994   5.6068
     5.9617

     occupation numbers 
     1.0000   1.0000   1.0000   1.0000   1.0000   1.0000   0.9999   0.9999
     0.0002   0.0000   0.0000   0.0000   0.0000   0.0000   0.0000   0.0000
     0.0000   0.0000   0.0000   0.0000   0.0000   0.0000   0.0000   0.0000
     0.0000   0.0000   0.0000   0.0000   0.0000   0.0000   0.0000   0.0000
     0.0000

     the Fermi energy is    -3.7899 ev

     Writing output data file /wrk/kfg/julia_data/MgS/dimer.in_vnscf_coords_4/qe.nscf.save/
 
     init_run     :      0.80s CPU      0.92s WALL (       1 calls)
     electrons    :    124.49s CPU    132.57s WALL (       1 calls)

     Called by init_run:
     wfcinit      :      0.00s CPU      0.00s WALL (       1 calls)
     wfcinit:atom :      0.05s CPU      0.05s WALL (      64 calls)
     wfcinit:wfcr :      3.52s CPU      3.80s WALL (      64 calls)
     potinit      :      0.06s CPU      0.08s WALL (       1 calls)
     hinit0       :      0.47s CPU      0.53s WALL (       1 calls)

     Called by electrons:
     c_bands      :    124.49s CPU    132.57s WALL (       1 calls)
     v_of_rho     :      0.05s CPU      0.06s WALL (       1 calls)
     v_h          :      0.00s CPU      0.00s WALL (       1 calls)
     v_xc         :      0.05s CPU      0.06s WALL (       1 calls)
     newd         :      0.20s CPU      0.24s WALL (       1 calls)

     Called by c_bands:
     init_us_2    :      0.10s CPU      0.11s WALL (      64 calls)
     cegterg      :    120.03s CPU    127.78s WALL (     172 calls)

     Called by sum_band:

     Called by *egterg:
     h_psi        :     69.87s CPU     76.56s WALL (    3199 calls)
     s_psi        :      2.71s CPU      2.80s WALL (    3199 calls)
     g_psi        :      1.24s CPU      1.26s WALL (    2963 calls)
     cdiaghg      :     16.45s CPU     16.86s WALL (    3027 calls)
     cegterg:over :     12.77s CPU     13.05s WALL (    2963 calls)
     cegterg:upda :     10.49s CPU     10.74s WALL (    2963 calls)
     cegterg:last :      7.39s CPU      7.49s WALL (     542 calls)
     cdiaghg:chol :      0.85s CPU      0.87s WALL (    3027 calls)
     cdiaghg:inve :      0.20s CPU      0.21s WALL (    3027 calls)
     cdiaghg:para :      2.03s CPU      2.18s WALL (    6054 calls)

     Called by h_psi:
     h_psi:calbec :      3.20s CPU      3.33s WALL (    3199 calls)
     vloc_psi     :     63.54s CPU     69.93s WALL (    3199 calls)
     add_vuspsi   :      2.71s CPU      2.75s WALL (    3199 calls)

     General routines
     calbec       :      3.19s CPU      3.32s WALL (    3199 calls)
     fft          :      0.03s CPU      0.04s WALL (      13 calls)
     ffts         :      0.00s CPU      0.00s WALL (       1 calls)
     fftw         :     57.45s CPU     63.34s WALL (   99720 calls)
     interpolate  :      0.00s CPU      0.00s WALL (       1 calls)
 
     Parallel routines
     fft_scatt_xy :      6.13s CPU      6.84s WALL (   99734 calls)
     fft_scatt_yz :     20.78s CPU     22.98s WALL (   99734 calls)
 
     PWSCF        :   2m 5.85s CPU   2m15.34s WALL

 
   This run was terminated on:  21:31:24  16Apr2020            

=------------------------------------------------------------------------------=
   JOB DONE.
=------------------------------------------------------------------------------=
